LAMMPS data file for the SWM4-NDP polarizable water model

10000 atoms
8000 bonds
6000 angles
0 dihedrals
0 impropers
4 atom types
3 bond types
2 angle types
0 dihedral types
0 improper types
0.000000 40.000000 xlo xhi
0.000000 40.000000 ylo yhi
0.000000 40.000000 zlo zhi

Masses

   1   15.199000  # ODw DC
   2    1.008000  # Hw
   3    1.e-16    # M
   4    0.800000  # ODw DP

Bond Coeffs

   1   500.000000     0.957200  # Ow-Hw
   2   500.000000     0.240340  # Ow-M
   3   500.000000     0.000000  # ODw DC-DP

Angle Coeffs

   1    50.000000   104.520000  # Hw-Ow-Hw
   2     0.000000     0.000000       

Atoms

      1       1    1   1.716360  2.470227e+01  1.475348e+01  3.651830e+01  # O1 DC
      2       1    2   0.557330  2.544693e+01  1.469832e+01  3.591942e+01  # H1
      3       1    2   0.557330  2.488767e+01  1.551924e+01  3.706188e+01  # H2
      4       1    3  -1.114660  2.489303e+01  1.489923e+01  3.650696e+01  # M1
      5       2    1   1.716360  3.727405e+01  8.423662e+00  2.332107e+01  # O1 DC
      6       2    2   0.557330  3.648745e+01  8.962930e+00  2.323932e+01  # H1
      7       2    2   0.557330  3.799864e+01  9.047214e+00  2.327231e+01  # H2
      8       2    3  -1.114660  3.726133e+01  8.662167e+00  2.329430e+01  # M1
      9       3    1   1.716360  2.916033e+00  3.417113e+01  9.325089e+00  # O1 DC
     10       3    2   0.557330  3.855529e+00  3.435437e+01  9.323690e+00  # H1
     11       3    2   0.557330  2.857861e+00  3.321571e+01  9.322637e+00  # H2
     12       3    3  -1.114660  3.096801e+00  3.401275e+01  9.324299e+00  # M1
     13       4    1   1.716360  5.248607e+00  3.677438e+01  9.093402e+00  # O1 DC
     14       4    2   0.557330  5.708235e+00  3.601868e+01  9.459314e+00  # H1
     15       4    2   0.557330  4.385214e+00  3.643740e+01  8.854184e+00  # H2
     16       4    3  -1.114660  5.165791e+00  3.655026e+01  9.119388e+00  # M1
     17       5    1   1.716360  3.086960e+01  3.568555e+01  1.765533e+01  # O1 DC
     18       5    2   0.557330  3.071133e+01  3.662537e+01  1.756634e+01  # H1
     19       5    2   0.557330  3.181134e+01  3.561447e+01  1.781117e+01  # H2
     20       5    3  -1.114660  3.103029e+01  3.586373e+01  1.766904e+01  # M1
     21       6    1   1.716360  1.020501e+01  5.346440e-01  2.690878e+01  # O1 DC
     22       6    2   0.557330  1.113435e+01  5.232850e-01  2.713774e+01  # H1
     23       6    2   0.557330  1.005470e+01  1.412937e+00  2.655915e+01  # H2
     24       6    3  -1.114660  1.036479e+01  7.124600e-01  2.688403e+01  # M1
     25       7    1   1.716360  1.752586e+01  1.603440e+00  2.163159e+01  # O1 DC
     26       7    2   0.557330  1.664327e+01  1.621701e+00  2.126155e+01  # H1
     27       7    2   0.557330  1.772652e+01  6.724710e-01  2.172783e+01  # H2
     28       7    3  -1.114660  1.738599e+01  1.416235e+00  2.157543e+01  # M1
     29       8    1   1.716360  2.913511e+01  3.133923e+01  1.891401e+01  # O1 DC
     30       8    2   0.557330  3.007884e+01  3.149577e+01  1.894720e+01  # H1
     31       8    2   0.557330  2.878551e+01  3.208333e+01  1.842379e+01  # H2
     32       8    3  -1.114660  2.925697e+01  3.152396e+01  1.882027e+01  # M1
     33       9    1   1.716360  7.385529e+00  2.238428e+01  1.857404e+01  # O1 DC
     34       9    2   0.557330  8.181239e+00  2.189190e+01  1.837245e+01  # H1
     35       9    2   0.557330  7.668270e+00  2.329849e+01  1.859664e+01  # H2
     36       9    3  -1.114660  7.606730e+00  2.247080e+01  1.853733e+01  # M1
     37      10    1   1.716360  3.496408e+01  2.803544e+01  3.455882e+01  # O1 DC
     38      10    2   0.557330  3.527975e+01  2.725378e+01  3.501224e+01  # H1
     39      10    2   0.557330  3.575835e+01  2.852146e+01  3.433710e+01  # H2
     40      10    3  -1.114660  3.519174e+01  2.797480e+01  3.460634e+01  # M1
     41      11    1   1.716360  5.785215e+00  3.881356e+00  3.041883e+01  # O1 DC
     42      11    2   0.557330  6.363014e+00  3.423250e+00  3.102917e+01  # H1
     43      11    2   0.557330  5.094941e+00  3.248451e+00  3.022088e+01  # H2
     44      11    3  -1.114660  5.762145e+00  3.657579e+00  3.050342e+01  # M1
     45      12    1   1.716360  1.142362e+01  1.757914e+01  3.030802e+01  # O1 DC
     46      12    2   0.557330  1.237654e+01  1.766956e+01  3.030625e+01  # H1
     47      12    2   0.557330  1.110912e+01  1.836195e+01  3.076025e+01  # H2
     48      12    3  -1.114660  1.155457e+01  1.775825e+01  3.040041e+01  # M1
     49      13    1   1.716360  1.547417e+01  2.534246e+01  1.923845e+01  # O1 DC
     50      13    2   0.557330  1.635017e+01  2.551256e+01  1.958474e+01  # H1
     51      13    2   0.557330  1.531768e+01  2.605634e+01  1.862029e+01  # H2
     52      13    3  -1.114660  1.562175e+01  2.552377e+01  1.918269e+01  # M1
     53      14    1   1.716360  2.877205e+01  1.095774e+01  1.378756e+01  # O1 DC
     54      14    2   0.557330  2.858594e+01  1.029638e+01  1.445404e+01  # H1
     55      14    2   0.557330  2.800554e+01  1.153098e+01  1.379769e+01  # H2
     56      14    3  -1.114660  2.857666e+01  1.093967e+01  1.392634e+01  # M1
     57      15    1   1.716360  2.190375e+01  1.065353e+01  1.112231e+01  # O1 DC
     58      15    2   0.557330  2.192380e+01  1.014920e+01  1.193562e+01  # H1
     59      15    2   0.557330  2.204738e+01  1.000432e+01  1.043375e+01  # H2
     60      15    3  -1.114660  2.193732e+01  1.041693e+01  1.114790e+01  # M1
     61      16    1   1.716360  1.962394e+01  2.342719e+01  3.835366e+00  # O1 DC
     62      16    2   0.557330  1.895589e+01  2.290742e+01  4.282337e+00  # H1
     63      16    2   0.557330  1.916256e+01  2.382923e+01  3.099354e+00  # H2
     64      16    3  -1.114660  1.939229e+01  2.340304e+01  3.776081e+00  # M1
     65      17    1   1.716360  3.008683e+01  6.160279e+00  3.658215e+01  # O1 DC
     66      17    2   0.557330  3.056090e+01  5.470983e+00  3.611701e+01  # H1
     67      17    2   0.557330  3.021178e+01  5.954348e+00  3.750854e+01  # H2
     68      17    3  -1.114660  3.020969e+01  5.976659e+00  3.667676e+01  # M1
     69      18    1   1.716360  3.203377e+01  2.004199e+01  3.202808e+01  # O1 DC
     70      18    2   0.557330  3.260990e+01  1.927808e+01  3.200092e+01  # H1
     71      18    2   0.557330  3.120213e+01  1.970368e+01  3.235999e+01  # H2
     72      18    3  -1.114660  3.198136e+01  1.981591e+01  3.209059e+01  # M1
     73      19    1   1.716360  1.511099e+01  2.888998e+01  3.620581e+00  # O1 DC
     74      19    2   0.557330  1.510822e+01  2.812402e+01  3.046538e+00  # H1
     75      19    2   0.557330  1.475849e+01  2.959660e+01  3.079598e+00  # H2
     76      19    3  -1.114660  1.503812e+01  2.887781e+01  3.391879e+00  # M1
     77      20    1   1.716360  3.229332e+01  8.036217e+00  7.545220e+00  # O1 DC
     78      20    2   0.557330  3.190076e+01  7.163247e+00  7.537961e+00  # H1
     79      20    2   0.557330  3.160372e+01  8.606638e+00  7.884776e+00  # H2
     80      20    3  -1.114660  3.207136e+01  7.974161e+00  7.613377e+00  # M1
     81      21    1   1.716360  4.755900e-01  3.079882e+01  2.999597e+01  # O1 DC
     82      21    2   0.557330  8.251320e-01  3.078471e+01  2.910499e+01  # H1
     83      21    2   0.557330  4.926550e-01  2.988335e+01  3.027499e+01  # H2
     84      21    3  -1.114660  5.507840e-01  3.060815e+01  2.987045e+01  # M1
     85      22    1   1.716360  1.965395e+00  1.879597e+01  8.000000e-06  # O1 DC
     86      22    2   0.557330  1.475205e+00  1.799452e+01  1.833860e-01  # H1
     87      22    2   0.557330  1.303950e+00  1.948786e+01  3.083000e-03  # H2
     88      22    3  -1.114660  1.729184e+00  1.877350e+01  3.825200e-02  # M1
     89      23    1   1.716360  4.464355e+00  3.654236e+01  1.847809e+01  # O1 DC
     90      23    2   0.557330  3.894956e+00  3.579906e+01  1.867693e+01  # H1
     91      23    2   0.557330  5.330262e+00  3.615436e+01  1.835203e+01  # H2
     92      23    3  -1.114660  4.525172e+00  3.631032e+01  1.849302e+01  # M1
     93      24    1   1.716360  3.166319e+01  2.373484e+00  3.078815e+01  # O1 DC
     94      24    2   0.557330  3.181039e+01  1.630667e+00  3.020267e+01  # H1
     95      24    2   0.557330  3.231578e+01  2.266590e+00  3.148020e+01  # H2
     96      24    3  -1.114660  3.182723e+01  2.199200e+00  3.081001e+01  # M1
     97      25    1   1.716360  1.072363e+01  1.405759e+01  4.799149e+00  # O1 DC
     98      25    2   0.557330  1.065086e+01  1.487938e+01  5.284526e+00  # H1
     99      25    2   0.557330  1.150817e+01  1.363858e+01  5.152924e+00  # H2
    100      25    3  -1.114660  1.086962e+01  1.414021e+01  4.971267e+00  # M1
    101      26    1   1.716360  1.537561e+01  1.340085e+01  8.169676e+00  # O1 DC
    102      26    2   0.557330  1.448121e+01  1.374115e+01  8.148116e+00  # H1
    103      26    2   0.557330  1.526979e+01  1.245204e+01  8.238849e+00  # H2
    104      26    3  -1.114660  1.517046e+01  1.327604e+01  8.179442e+00  # M1
    105      27    1   1.716360  1.438025e+01  1.609964e+01  4.358310e+00  # O1 DC
    106      27    2   0.557330  1.423867e+01  1.515630e+01  4.278942e+00  # H1
    107      27    2   0.557330  1.533037e+01  1.619496e+01  4.424863e+00  # H2
    108      27    3  -1.114660  1.454609e+01  1.592571e+01  4.355681e+00  # M1
    109      28    1   1.716360  2.627952e+01  7.385907e+00  1.844976e+01  # O1 DC
    110      28    2   0.557330  2.653546e+01  8.293945e+00  1.861159e+01  # H1
    111      28    2   0.557330  2.692038e+01  7.065403e+00  1.781509e+01  # H2
    112      28    3  -1.114660  2.646346e+01  7.506416e+00  1.835278e+01  # M1
    113      29    1   1.716360  4.721313e+00  2.396781e+01  3.240536e+01  # O1 DC
    114      29    2   0.557330  5.616760e+00  2.430604e+01  3.240278e+01  # H1
    115      29    2   0.557330  4.169379e+00  2.474986e+01  3.240492e+01  # H2
    116      29    3  -1.114660  4.791771e+00  2.419759e+01  3.240474e+01  # M1
    117      30    1   1.716360  2.064959e+00  2.419865e+00  3.552819e+01  # O1 DC
    118      30    2   0.557330  1.773621e+00  3.251888e+00  3.515525e+01  # H1
    119      30    2   0.557330  2.956429e+00  2.591839e+00  3.583141e+01  # H2
    120      30    3  -1.114660  2.188052e+00  2.625795e+00  3.551389e+01  # M1
    121      31    1   1.716360  1.061937e+01  1.164051e+01  6.294630e-01  # O1 DC
    122      31    2   0.557330  9.871194e+00  1.223754e+01  6.345530e-01  # H1
    123      31    2   0.557330  1.138492e+01  1.221510e+01  6.294020e-01  # H2
    124      31    3  -1.114660  1.062293e+01  1.188082e+01  6.304940e-01  # M1
    125      32    1   1.716360  2.110061e+01  1.371041e+01  1.142775e+01  # O1 DC
    126      32    2   0.557330  2.057962e+01  1.322460e+01  1.078838e+01  # H1
    127      32    2   0.557330  2.177380e+01  1.414761e+01  1.090630e+01  # H2
    128      32    3  -1.114660  2.113183e+01  1.370044e+01  1.118965e+01  # M1
    129      33    1   1.716360  2.936740e+01  3.599981e+01  2.902836e+01  # O1 DC
    130      33    2   0.557330  2.933682e+01  3.599136e+01  2.807169e+01  # H1
    131      33    2   0.557330  2.973546e+01  3.514827e+01  2.926424e+01  # H2
    132      33    3  -1.114660  2.943662e+01  3.582342e+01  2.888052e+01  # M1
    133      34    1   1.716360  6.248999e+00  3.267568e+01  2.825301e+01  # O1 DC
    134      34    2   0.557330  5.472237e+00  3.315053e+01  2.854864e+01  # H1
    135      34    2   0.557330  6.894479e+00  3.335939e+01  2.807377e+01  # H2
    136      34    3  -1.114660  6.222072e+00  3.291331e+01  2.827688e+01  # M1
    137      35    1   1.716360  8.687175e+00  1.385791e+01  2.035281e+01  # O1 DC
    138      35    2   0.557330  8.604861e+00  1.290722e+01  2.042788e+01  # H1
    139      35    2   0.557330  7.815601e+00  1.419178e+01  2.056523e+01  # H2
    140      35    3  -1.114660  8.491524e+00  1.373139e+01  2.041177e+01  # M1
    141      36    1   1.716360  3.467468e+01  5.827464e+00  1.431894e+01  # O1 DC
    142      36    2   0.557330  3.502009e+01  5.136776e+00  1.375337e+01  # H1
    143      36    2   0.557330  3.529982e+01  6.546676e+00  1.422859e+01  # H2
    144      36    3  -1.114660  3.487375e+01  5.833315e+00  1.418441e+01  # M1
    145      37    1   1.716360  3.535984e+01  9.271024e+00  1.794126e+01  # O1 DC
    146      37    2   0.557330  3.586294e+01  8.460123e+00  1.786669e+01  # H1
    147      37    2   0.557330  3.447971e+01  8.985699e+00  1.818662e+01  # H2
    148      37    3  -1.114660  3.528251e+01  9.046178e+00  1.797629e+01  # M1
    149      38    1   1.716360  2.766313e+01  2.657361e+01  2.461339e+01  # O1 DC
    150      38    2   0.557330  2.728249e+01  2.652211e+01  2.549014e+01  # H1
    151      38    2   0.557330  2.718550e+01  2.591776e+01  2.410550e+01  # H2
    152      38    3  -1.114660  2.748709e+01  2.642852e+01  2.468905e+01  # M1
    153      39    1   1.716360  2.330304e+01  8.280307e+00  3.518646e+01  # O1 DC
    154      39    2   0.557330  2.328454e+01  9.198198e+00  3.545732e+01  # H1
    155      39    2   0.557330  2.381137e+01  7.839406e+00  3.586722e+01  # H2
    156      39    3  -1.114660  2.340351e+01  8.378142e+00  3.538164e+01  # M1
    157      40    1   1.716360  2.039115e+01  2.154484e+01  1.035104e+01  # O1 DC
    158      40    2   0.557330  1.973750e+01  2.211442e+01  9.945407e+00  # H1
    159      40    2   0.557330  2.036402e+01  2.074091e+01  9.832210e+00  # H2
    160      40    3  -1.114660  2.025152e+01  2.149677e+01  1.016142e+01  # M1
    161      41    1   1.716360  7.178500e-01  9.387284e+00  2.961325e+01  # O1 DC
    162      41    2   0.557330  1.576970e-01  1.016347e+01  2.961467e+01  # H1
    163      41    2   0.557330  2.549960e-01  8.756292e+00  3.016448e+01  # H2
    164      41    3  -1.114660  5.080220e-01  9.417064e+00  2.972660e+01  # M1
    165      42    1   1.716360  1.406409e+01  3.345125e+01  2.590094e+01  # O1 DC
    166      42    2   0.557330  1.484198e+01  3.392481e+01  2.560622e+01  # H1
    167      42    2   0.557330  1.421391e+01  3.254745e+01  2.562357e+01  # H2
    168      42    3  -1.114660  1.425437e+01  3.336300e+01  2.578360e+01  # M1
    169      43    1   1.716360  2.170315e+01  1.240671e+00  2.501056e+01  # O1 DC
    170      43    2   0.557330  2.235308e+01  5.600300e-01  2.518534e+01  # H1
    171      43    2   0.557330  2.222012e+01  2.027853e+00  2.483935e+01  # H2
    172      43    3  -1.114660  2.194249e+01  1.262524e+00  2.501129e+01  # M1
    173      44    1   1.716360  1.951579e+01  2.904777e+01  7.078605e+00  # O1 DC
    174      44    2   0.557330  1.858459e+01  2.892210e+01  6.896086e+00  # H1
    175      44    2   0.557330  1.961162e+01  2.999270e+01  7.197651e+00  # H2
    176      44    3  -1.114660  1.934445e+01  2.921581e+01  7.065586e+00  # M1
    177      45    1   1.716360  1.667983e+01  1.734747e+01  2.192795e+01  # O1 DC
    178      45    2   0.557330  1.692879e+01  1.642760e+01  2.201788e+01  # H1
    179      45    2   0.557330  1.575285e+01  1.736954e+01  2.216557e+01  # H2
    180      45    3  -1.114660  1.654076e+01  1.716332e+01  2.199513e+01  # M1
    181      46    1   1.716360  3.096053e+01  1.414440e+01  2.408426e+01  # O1 DC
    182      46    2   0.557330  3.124052e+01  1.323941e+01  2.394709e+01  # H1
    183      46    2   0.557330  3.177629e+01  1.463686e+01  2.417506e+01  # H2
    184      46    3  -1.114660  3.118528e+01  1.405979e+01  2.407475e+01  # M1
    185      47    1   1.716360  1.065536e+01  2.228519e+00  9.036545e+00  # O1 DC
    186      47    2   0.557330  9.965076e+00  1.786727e+00  8.542023e+00  # H1
    187      47    2   0.557330  1.090242e+01  2.974394e+00  8.489860e+00  # H2
    188      47    3  -1.114660  1.056445e+01  2.290889e+00  8.822983e+00  # M1
    189      48    1   1.716360  2.477014e+01  2.490869e+01  5.404483e+00  # O1 DC
    190      48    2   0.557330  2.452364e+01  2.580460e+01  5.634297e+00  # H1
    191      48    2   0.557330  2.425185e+01  2.470970e+01  4.624737e+00  # H2
    192      48    3  -1.114660  2.461328e+01  2.505164e+01  5.291687e+00  # M1
    193      49    1   1.716360  3.226655e+01  2.676134e+01  2.286386e+01  # O1 DC
    194      49    2   0.557330  3.209697e+01  2.584538e+01  2.264365e+01  # H1
    195      49    2   0.557330  3.158655e+01  2.724961e+01  2.239972e+01  # H2
    196      49    3  -1.114660  3.209229e+01  2.667362e+01  2.272349e+01  # M1
    197      50    1   1.716360  1.412708e+00  5.940207e+00  1.062248e+01  # O1 DC
    198      50    2   0.557330  2.095600e+00  5.358862e+00  1.028792e+01  # H1
    199      50    2   0.557330  6.040070e-01  5.435609e+00  1.053521e+01  # H2
    200      50    3  -1.114660  1.386903e+00  5.717469e+00  1.053596e+01  # M1
    201      51    1   1.716360  1.855356e+01  1.303113e+01  1.874110e+00  # O1 DC
    202      51    2   0.557330  1.811607e+01  1.271734e+01  2.665543e+00  # H1
    203      51    2   0.557330  1.834753e+01  1.237392e+01  1.209390e+00  # H2
    204      51    3  -1.114660  1.842157e+01  1.283197e+01  1.900100e+00  # M1
    205      52    1   1.716360  7.614641e+00  5.956646e+00  1.492887e+01  # O1 DC
    206      52    2   0.557330  7.177966e+00  5.148535e+00  1.465961e+01  # H1
    207      52    2   0.557330  7.191565e+00  6.641907e+00  1.441152e+01  # H2
    208      52    3  -1.114660  7.438298e+00  5.931448e+00  1.476753e+01  # M1
    209      53    1   1.716360  1.747342e+01  1.880114e+01  3.461482e+01  # O1 DC
    210      53    2   0.557330  1.673697e+01  1.938630e+01  3.479217e+01  # H1
    211      53    2   0.557330  1.824416e+01  1.929240e+01  3.489917e+01  # H2
    212      53    3  -1.114660  1.748045e+01  1.902192e+01  3.470952e+01  # M1
    213      54    1   1.716360  2.517811e+01  1.510370e+01  1.755396e+01  # O1 DC
    214      54    2   0.557330  2.457023e+01  1.456636e+01  1.704604e+01  # H1
    215      54    2   0.557330  2.604321e+01  1.475355e+01  1.734131e+01  # H2
    216      54    3  -1.114660  2.523087e+01  1.492167e+01  1.740616e+01  # M1
    217      55    1   1.716360  1.927541e+01  2.276722e+01  3.703291e+01  # O1 DC
    218      55    2   0.557330  1.968192e+01  2.213379e+01  3.762431e+01  # H1
    219      55    2   0.557330  1.922470e+01  2.231240e+01  3.619220e+01  # H2
    220      55    3  -1.114660  1.934839e+01  2.254401e+01  3.698177e+01  # M1
    221      56    1   1.716360  3.764138e+01  3.178051e+01  3.104219e+01  # O1 DC
    222      56    2   0.557330  3.799362e+01  3.250465e+01  3.155966e+01  # H1
    223      56    2   0.557330  3.696676e+01  3.139296e+01  3.159980e+01  # H2
    224      56    3  -1.114660  3.757526e+01  3.184954e+01  3.126270e+01  # M1
    225      57    1   1.716360  1.140545e+01  3.150352e+01  2.605672e+01  # O1 DC
    226      57    2   0.557330  1.234056e+01  3.138616e+01  2.588930e+01  # H1
    227      57    2   0.557330  1.131066e+01  3.243725e+01  2.624483e+01  # H2
    228      57    3  -1.114660  1.157780e+01  3.167096e+01  2.606097e+01  # M1
    229      58    1   1.716360  1.370684e+01  2.447617e+01  7.414055e+00  # O1 DC
    230      58    2   0.557330  1.426713e+01  2.525067e+01  7.463683e+00  # H1
    231      58    2   0.557330  1.393867e+01  2.396229e+01  8.187630e+00  # H2
    232      58    3  -1.114660  1.386931e+01  2.452962e+01  7.582902e+00  # M1
    233      59    1   1.716360  1.127228e+01  2.416405e+01  7.456967e+00  # O1 DC
    234      59    2   0.557330  1.105978e+01  2.485100e+01  8.088764e+00  # H1
    235      59    2   0.557330  1.179371e+01  2.353377e+01  7.954054e+00  # H2
    236      59    3  -1.114660  1.133564e+01  2.417567e+01  7.688512e+00  # M1
    237      60    1   1.716360  1.636494e+01  2.314914e+01  1.789113e+01  # O1 DC
    238      60    2   0.557330  1.673021e+01  2.402863e+01  1.798768e+01  # H1
    239      60    2   0.557330  1.587736e+01  2.318082e+01  1.706803e+01  # H2
    240      60    3  -1.114660  1.633986e+01  2.333603e+01  1.774211e+01  # M1
    241      61    1   1.716360  3.715786e+01  3.661473e+01  1.742922e+00  # O1 DC
    242      61    2   0.557330  3.755002e+01  3.721671e+01  1.110415e+00  # H1
    243      61    2   0.557330  3.621592e+01  3.676722e+01  1.667226e+00  # H2
    244      61    3  -1.114660  3.704510e+01  3.676948e+01  1.597663e+00  # M1
    245      62    1   1.716360  3.508795e+00  2.769608e+01  2.336546e+00  # O1 DC
    246      62    2   0.557330  3.139487e+00  2.816522e+01  1.588384e+00  # H1
    247      62    2   0.557330  4.378528e+00  2.807821e+01  2.453889e+00  # H2
    248      62    3  -1.114660  3.611437e+00  2.787068e+01  2.207159e+00  # M1
    249      63    1   1.716360  7.861533e+00  7.771321e+00  4.170384e+00  # O1 DC
    250      63    2   0.557330  7.214597e+00  7.070508e+00  4.089350e+00  # H1
    251      63    2   0.557330  7.343143e+00  8.558162e+00  4.338857e+00  # H2
    252      63    3  -1.114660  7.622514e+00  7.788966e+00  4.188319e+00  # M1
    253      64    1   1.716360  4.543412e+00  2.988694e+01  8.765070e-01  # O1 DC
    254      64    2   0.557330  4.502796e+00  3.069298e+01  3.618340e-01  # H1
    255      64    2   0.557330  5.386211e+00  2.949662e+01  6.450490e-01  # H2
    256      64    3  -1.114660  4.707947e+00  2.997221e+01  7.234680e-01  # M1
    257      65    1   1.716360  3.540830e+01  5.793972e+00  1.003051e+01  # O1 DC
    258      65    2   0.557330  3.469688e+01  5.184634e+00  1.022755e+01  # H1
    259      65    2   0.557330  3.498458e+01  6.651090e+00  9.985406e+00  # H2
    260      65    3  -1.114660  3.517547e+01  5.844794e+00  1.006168e+01  # M1
    261      66    1   1.716360  1.508645e+01  2.136457e+01  1.599287e+01  # O1 DC
    262      66    2   0.557330  1.592486e+01  2.097910e+01  1.624726e+01  # H1
    263      66    2   0.557330  1.444642e+01  2.095047e+01  1.657177e+01  # H2
    264      66    3  -1.114660  1.512714e+01  2.120057e+01  1.616379e+01  # M1
    265      67    1   1.716360  2.843624e+01  8.613762e+00  1.042237e+01  # O1 DC
    266      67    2   0.557330  2.839694e+01  7.808382e+00  9.906568e+00  # H1
    267      67    2   0.557330  2.820804e+01  9.306868e+00  9.802883e+00  # H2
    268      67    3  -1.114660  2.838137e+01  8.590734e+00  1.018951e+01  # M1
    269      68    1   1.716360  2.235315e+01  3.406144e+01  4.617180e+00  # O1 DC
    270      68    2   0.557330  2.160766e+01  3.346468e+01  4.551268e+00  # H1
    271      68    2   0.557330  2.197808e+01  3.487870e+01  4.945268e+00  # H2
    272      68    3  -1.114660  2.212332e+01  3.410667e+01  4.670955e+00  # M1
    273      69    1   1.716360  2.477478e+01  2.777240e+01  1.582296e+01  # O1 DC
    274      69    2   0.557330  2.552954e+01  2.793797e+01  1.638788e+01  # H1
    275      69    2   0.557330  2.511462e+01  2.720967e+01  1.512720e+01  # H2
    276      69    3  -1.114660  2.499929e+01  2.769094e+01  1.579612e+01  # M1
    277      70    1   1.716360  1.152188e+01  2.435410e+01  3.022821e+01  # O1 DC
    278      70    2   0.557330  1.225621e+01  2.493593e+01  3.003208e+01  # H1
    279      70    2   0.557330  1.185692e+01  2.347572e+01  3.004813e+01  # H2
    280      70    3  -1.114660  1.174122e+01  2.429328e+01  3.015105e+01  # M1
    281      71    1   1.716360  1.269362e+01  4.682286e+00  1.235921e+01  # O1 DC
    282      71    2   0.557330  1.352177e+01  4.764274e+00  1.188626e+01  # H1
    283      71    2   0.557330  1.277791e+01  5.286069e+00  1.309717e+01  # H2
    284      71    3  -1.114660  1.288077e+01  4.822944e+00  1.241357e+01  # M1
    285      72    1   1.716360  2.576640e+01  1.064302e+01  2.112438e+01  # O1 DC
    286      72    2   0.557330  2.485132e+01  1.046321e+01  2.090869e+01  # H1
    287      72    2   0.557330  2.608564e+01  9.828932e+00  2.151371e+01  # H2
    288      72    3  -1.114660  2.564419e+01  1.043916e+01  2.116000e+01  # M1
    289      73    1   1.716360  2.048462e+00  2.171723e+01  1.722666e+01  # O1 DC
    290      73    2   0.557330  2.628087e+00  2.190185e+01  1.796570e+01  # H1
    291      73    2   0.557330  1.437829e+00  2.245418e+01  1.721064e+01  # H2
    292      73    3  -1.114660  2.042102e+00  2.190625e+01  1.737495e+01  # M1
    293      74    1   1.716360  3.279101e+01  2.137498e+01  2.832483e+01  # O1 DC
    294      74    2   0.557330  3.356452e+01  2.168545e+01  2.785416e+01  # H1
    295      74    2   0.557330  3.278715e+01  2.042848e+01  2.818221e+01  # H2
    296      74    3  -1.114660  3.294888e+01  2.124453e+01  2.819904e+01  # M1
    297      75    1   1.716360  1.145055e+01  2.706235e+01  5.364482e+00  # O1 DC
    298      75    2   0.557330  1.182993e+01  2.623052e+01  5.080998e+00  # H1
    299      75    2   0.557330  1.090706e+01  2.734172e+01  4.627731e+00  # H2
    300      75    3  -1.114660  1.141689e+01  2.694903e+01  5.155222e+00  # M1
    301      76    1   1.716360  7.537530e+00  3.555919e+01  2.489145e+01  # O1 DC
    302      76    2   0.557330  7.904948e+00  3.516295e+01  2.410137e+01  # H1
    303      76    2   0.557330  7.218282e+00  3.481762e+01  2.540564e+01  # H2
    304      76    3  -1.114660  7.547410e+00  3.532581e+01  2.483486e+01  # M1
    305      77    1   1.716360  3.229760e+01  1.631769e+01  3.662790e-01  # O1 DC
    306      77    2   0.557330  3.267305e+01  1.577130e+01  1.056724e+00  # H1
    307      77    2   0.557330  3.158761e+01  1.578937e+01  1.556000e-03  # H2
    308      77    3  -1.114660  3.222898e+01  1.609726e+01  4.330880e-01  # M1
    309      78    1   1.716360  2.608664e+01  9.603208e+00  3.248040e+01  # O1 DC
    310      78    2   0.557330  2.554630e+01  9.850035e+00  3.323096e+01  # H1
    311      78    2   0.557330  2.553761e+01  9.002318e+00  3.197669e+01  # H2
    312      78    3  -1.114660  2.586320e+01  9.530586e+00  3.253103e+01  # M1
    313      79    1   1.716360  7.829626e+00  1.895896e+01  9.322998e+00  # O1 DC
    314      79    2   0.557330  8.734436e+00  1.870419e+01  9.142320e+00  # H1
    315      79    2   0.557330  7.551295e+00  1.837298e+01  1.002683e+01  # H2
    316      79    3  -1.114660  7.958123e+00  1.878652e+01  9.430303e+00  # M1
    317      80    1   1.716360  1.527768e+01  4.205718e+00  7.802458e+00  # O1 DC
    318      80    2   0.557330  1.616320e+01  4.553551e+00  7.697100e+00  # H1
    319      80    2   0.557330  1.471001e+01  4.974629e+00  7.750042e+00  # H2
    320      80    3  -1.114660  1.534288e+01  4.434773e+00  7.770097e+00  # M1
    321      81    1   1.716360  5.490350e+00  1.525093e+01  2.440328e+01  # O1 DC
    322      81    2   0.557330  4.993264e+00  1.480169e+01  2.371968e+01  # H1
    323      81    2   0.557330  5.607163e+00  1.614051e+01  2.406976e+01  # H2
    324      81    3  -1.114660  5.412352e+00  1.534125e+01  2.419466e+01  # M1
    325      82    1   1.716360  3.319481e+01  2.144699e+01  1.344020e+01  # O1 DC
    326      82    2   0.557330  3.350526e+01  2.150218e+01  1.434398e+01  # H1
    327      82    2   0.557330  3.376580e+01  2.204147e+01  1.295359e+01  # H2
    328      82    3  -1.114660  3.337560e+01  2.158024e+01  1.352577e+01  # M1
    329      83    1   1.716360  5.881790e-01  2.959464e+01  3.340099e+01  # O1 DC
    330      83    2   0.557330  2.315000e-03  3.035160e+01  3.340028e+01  # H1
    331      83    2   0.557330  2.281000e-03  2.883770e+01  3.340048e+01  # H2
    332      83    3  -1.114660  3.478400e-01  2.959464e+01  3.340074e+01  # M1
    333      84    1   1.716360  3.055629e+01  4.016495e+00  1.805665e+01  # O1 DC
    334      84    2   0.557330  3.137406e+01  3.895243e+00  1.757417e+01  # H1
    335      84    2   0.557330  3.032811e+01  4.935260e+00  1.791511e+01  # H2
    336      84    3  -1.114660  3.067722e+01  4.180072e+00  1.792866e+01  # M1
    337      85    1   1.716360  5.208052e+00  8.831831e+00  6.014475e+00  # O1 DC
    338      85    2   0.557330  6.117045e+00  9.125613e+00  6.074931e+00  # H1
    339      85    2   0.557330  5.260493e+00  7.877373e+00  6.064400e+00  # H2
    340      85    3  -1.114660  5.405252e+00  8.696320e+00  6.037115e+00  # M1
    341      86    1   1.716360  2.543663e+01  1.205354e+01  1.166721e+01  # O1 DC
    342      86    2   0.557330  2.594182e+01  1.167120e+01  1.238472e+01  # H1
    343      86    2   0.557330  2.534925e+01  1.297763e+01  1.190100e+01  # H2
    344      86    3  -1.114660  2.552233e+01  1.216466e+01  1.186233e+01  # M1
    345      87    1   1.716360  3.443843e+00  3.035312e+01  3.010929e+01  # O1 DC
    346      87    2   0.557330  3.173465e+00  2.956862e+01  2.963212e+01  # H1
    347      87    2   0.557330  2.651895e+00  3.064378e+01  3.056158e+01  # H2
    348      87    3  -1.114660  3.225950e+00  3.025183e+01  3.010419e+01  # M1
    349      88    1   1.716360  2.388000e-03  2.113272e+00  1.296445e+01  # O1 DC
    350      88    2   0.557330  2.161000e-03  3.070420e+00  1.295453e+01  # H1
    351      88    2   0.557330  9.030220e-01  1.875772e+00  1.318509e+01  # H2
    352      88    3  -1.114660  1.870700e-01  2.260879e+00  1.300767e+01  # M1
    353      89    1   1.716360  2.430145e+00  6.462735e+00  3.233957e+01  # O1 DC
    354      89    2   0.557330  1.590152e+00  6.074411e+00  3.209493e+01  # H1
    355      89    2   0.557330  3.073795e+00  5.779054e+00  3.215376e+01  # H2
    356      89    3  -1.114660  2.389873e+00  6.242856e+00  3.225129e+01  # M1
    357      90    1   1.716360  5.513415e+00  2.137032e+00  2.603979e+01  # O1 DC
    358      90    2   0.557330  5.007528e+00  1.487125e+00  2.555201e+01  # H1
    359      90    2   0.557330  5.952072e+00  2.655379e+00  2.536516e+01  # H2
    360      90    3  -1.114660  5.499625e+00  2.110048e+00  2.580137e+01  # M1
    361      91    1   1.716360  2.065828e+01  3.317018e+01  3.457016e+01  # O1 DC
    362      91    2   0.557330  2.024159e+01  3.391111e+01  3.413014e+01  # H1
    363      91    2   0.557330  2.143500e+01  3.298372e+01  3.404274e+01  # H2