LAMMPS data file for CVFF water model with cross-terms and Morse potential

6000 atoms
4000 bonds
2000 angles

2 atom types
1 bond types
1 angle types

0.000000 39.115000 xlo xhi
0.000000 39.115000 ylo yhi
0.000000 39.115000 zlo zhi

Masses

   1   15.999000  # O
   2    1.008000  # H

Pair Coeffs
 
    1    0.155416 3.165520   # O
    2    0.000000 0.000000   # H

Bond Coeffs

    1    104.000000  2.280000   0.960000   # O-H

Angle Coeffs

    1  104.500000 50.000000 0.000000 0.000000  # H-O-H

BondBond Coeffs

    1   -14.500000     0.960000      0.960000

BondAngle Coeffs

         1   31.300000  31.300000   0.960000   0.960000

Atoms

      1       1    1  -0.820000   22.151  -0.289  12.046   # O
      2       1    2   0.410000   21.610   0.476  12.187  
      3       1    2   0.410000   23.014   0.031  11.831  
      4       2    1  -0.820000   34.105   3.053  21.414   # O
      5       2    2   0.410000   33.825   2.757  22.266  
      6       2    2   0.410000   34.693   2.399  21.078  
      7       3    1  -0.820000    4.605  34.135  12.639   # O
      8       3    2   0.410000    3.948  34.806  12.723  
      9       3    2   0.410000    5.007  34.041  13.487  
     10       4    1  -0.820000   27.382   8.894  36.224   # O
     11       4    2   0.410000   27.173   8.338  36.956  
     12       4    2   0.410000   27.397   8.338  35.458  
     13       5    1  -0.820000   10.131  29.395  12.204   # O
     14       5    2   0.410000   10.870  29.831  11.806  
     15       5    2   0.410000    9.844  28.739  11.587  
     16       6    1  -0.820000    8.563  18.871   8.751   # O
     17       6    2   0.410000    9.280  18.399   9.143  
     18       6    2   0.410000    8.332  19.562   9.344  
     19       7    1  -0.820000   30.498  18.997  11.263   # O
     20       7    2   0.410000   31.135  19.346  10.656  
     21       7    2   0.410000   30.940  18.888  12.085  
     22       8    1  -0.820000   22.901  14.903   3.738   # O
     23       8    2   0.410000   23.771  15.223   3.558  
     24       8    2   0.410000   22.888  13.995   3.486  
     25       9    1  -0.820000   19.631  16.268  10.888   # O
     26       9    2   0.410000   20.555  16.224  10.713  
     27       9    2   0.410000   19.199  16.381  10.059  
     28      10    1  -0.820000   17.189  14.336  37.732   # O
     29      10    2   0.410000   17.206  14.230  38.670  
     30      10    2   0.410000   16.299  14.176  37.458  
     31      11    1  -0.820000   25.259   5.847  20.762   # O
     32      11    2   0.410000   25.739   6.244  20.048  
     33      11    2   0.410000   24.421   6.284  20.792  
     34      12    1  -0.820000   13.424  14.983  16.362   # O
     35      12    2   0.410000   13.795  15.236  15.535  
     36      12    2   0.410000   12.658  15.521  16.494  
     37      13    1  -0.820000   22.169  28.911  27.756   # O
     38      13    2   0.410000   23.080  28.796  27.973  
     39      13    2   0.410000   21.783  28.052  27.735  
     40      14    1  -0.820000   17.968  21.698   2.589   # O
     41      14    2   0.410000   18.812  21.280   2.602  
     42      14    2   0.410000   17.887  22.172   3.401  
     43      15    1  -0.820000    1.371  32.939  38.915   # O
     44      15    2   0.410000    2.106  33.528  38.856  
     45      15    2   0.410000    0.932  32.964  38.082  
     46      16    1  -0.820000   19.080  13.122  24.215   # O
     47      16    2   0.410000   18.818  12.278  24.554  
     48      16    2   0.410000   18.720  13.768  24.805  
     49      17    1  -0.820000    3.290  18.007  28.250   # O
     50      17    2   0.410000    3.194  17.280  28.850  
     51      17    2   0.410000    2.586  17.936  27.629  
     52      18    1  -0.820000   11.665  36.448  15.099   # O
     53      18    2   0.410000   12.136  37.164  14.709  
     54      18    2   0.410000   10.893  36.811  15.496  
     55      19    1  -0.820000   29.870  20.678  21.850   # O
     56      19    2   0.410000   30.563  20.978  21.285  
     57      19    2   0.410000   29.255  21.385  21.930  
     58      20    1  -0.820000    2.966  39.098   0.474   # O
     59      20    2   0.410000    2.671  38.673   1.263  
     60      20    2   0.410000    2.313  38.937  -0.185  
     61      21    1  -0.820000   37.343   9.945   5.853   # O
     62      21    2   0.410000   37.048   9.535   5.053  
     63      21    2   0.410000   37.026  10.837   5.826  
     64      22    1  -0.820000   18.264  20.216   5.785   # O
     65      22    2   0.410000   19.193  20.387   5.722  
     66      22    2   0.410000   17.921  20.832   6.412  
     67      23    1  -0.820000   28.806  11.979  14.891   # O
     68      23    2   0.410000   28.577  12.435  15.688  
     69      23    2   0.410000   29.288  11.213  15.148  
     70      24    1  -0.820000   15.221   9.663  28.079   # O
     71      24    2   0.410000   15.492   9.891  28.954  
     72      24    2   0.410000   15.979   9.288  27.652  
     73      25    1  -0.820000   32.576  16.712   1.081   # O
     74      25    2   0.410000   32.114  16.649   0.261  
     75      25    2   0.410000   33.497  16.715   0.876  
     76      26    1  -0.820000   27.947  12.955  17.371   # O
     77      26    2   0.410000   27.261  12.551  17.871  
     78      26    2   0.410000   28.087  13.814  17.741  
     79      27    1  -0.820000   16.410  33.122  26.845   # O
     80      27    2   0.410000   16.473  33.988  26.477  
     81      27    2   0.410000   16.599  32.516  26.148  
     82      28    1  -0.820000   32.713  34.366  10.310   # O
     83      28    2   0.410000   33.018  33.777  10.987  
     84      28    2   0.410000   33.359  34.338   9.622  
     85      29    1  -0.820000    3.325  35.966  24.931   # O
     86      29    2   0.410000    4.211  35.758  25.188  
     87      29    2   0.410000    2.846  35.151  24.939  
     88      30    1  -0.820000   25.048  16.751  10.381   # O
     89      30    2   0.410000   25.167  16.211   9.614  
     90      30    2   0.410000   25.546  16.346  11.073  
     91      31    1  -0.820000   16.391  22.760  34.463   # O
     92      31    2   0.410000   15.565  22.845  34.022  
     93      31    2   0.410000   16.240  22.233  35.232  
     94      32    1  -0.820000   35.370  29.522  25.816   # O
     95      32    2   0.410000   35.868  29.497  25.020  
     96      32    2   0.410000   35.626  30.307  26.275  
     97      33    1  -0.820000    6.991  28.940  26.937   # O
     98      33    2   0.410000    7.297  29.722  27.366  
     99      33    2   0.410000    7.143  28.225  27.532  
    100      34    1  -0.820000    5.989  24.719  33.840   # O
    101      34    2   0.410000    6.330  24.357  34.646  
    102      34    2   0.410000    5.931  25.653  33.974  
    103      35    1  -0.820000   13.024  35.834   5.617   # O
    104      35    2   0.410000   13.660  35.151   5.487  
    105      35    2   0.410000   13.117  36.432   4.893  
    106      36    1  -0.820000   12.429  17.015  20.578   # O
    107      36    2   0.410000   12.309  16.924  21.509  
    108      36    2   0.410000   11.565  17.119  20.205  
    109      37    1  -0.820000   26.047  27.763   1.944   # O
    110      37    2   0.410000   26.434  27.337   2.693  
    111      37    2   0.410000   26.532  28.559   1.805  
    112      38    1  -0.820000    3.834  25.129  17.598   # O
    113      38    2   0.410000    4.618  24.621  17.463  
    114      38    2   0.410000    3.767  25.719  16.862  
    115      39    1  -0.820000   15.279  17.493  11.631   # O
    116      39    2   0.410000   14.408  17.813  11.790  
    117      39    2   0.410000   15.226  16.939  10.864  
    118      40    1  -0.820000   11.418  17.965  25.381   # O
    119      40    2   0.410000   10.506  18.182  25.278  
    120      40    2   0.410000   11.908  18.718  25.086  
    121      41    1  -0.820000   24.361  34.482   3.068   # O
    122      41    2   0.410000   25.209  34.448   2.650  
    123      41    2   0.410000   23.986  33.617   2.978  
    124      42    1  -0.820000   19.088   0.640  21.458   # O
    125      42    2   0.410000   18.525  -0.032  21.101  
    126      42    2   0.410000   19.505   1.061  20.729  
    127      43    1  -0.820000   33.922  18.393  33.424   # O
    128      43    2   0.410000   33.520  19.171  33.776  
    129      43    2   0.410000   34.671  18.208  33.971  
    130      44    1  -0.820000    5.871  10.812  28.200   # O
    131      44    2   0.410000    6.208  11.615  28.559  
    132      44    2   0.410000    5.364  10.400  28.879  
    133      45    1  -0.820000   19.184  34.803  27.952   # O
    134      45    2   0.410000   19.573  34.299  27.255  
    135      45    2   0.410000   19.733  34.676  28.713  
    136      46    1  -0.820000   32.165  12.414  13.256   # O
    137      46    2   0.410000   32.250  12.985  14.009  
    138      46    2   0.410000   31.310  12.568  12.899  
    139      47    1  -0.820000    3.398   6.155   1.966   # O
    140      47    2   0.410000    2.874   6.594   1.314  
    141      47    2   0.410000    4.117   6.730   2.166  
    142      48    1  -0.820000   21.782  13.982  12.356   # O
    143      48    2   0.410000   22.178  14.764  12.703  
    144      48    2   0.410000   22.229  13.252  12.753  
    145      49    1  -0.820000   19.278  18.472   8.033   # O
    146      49    2   0.410000   19.197  19.026   7.272  
    147      49    2   0.410000   18.741  18.865   8.706  
    148      50    1  -0.820000   26.044  33.517  20.084   # O
    149      50    2   0.410000   25.397  34.094  19.709  
    150      50    2   0.410000   25.588  32.961  20.693  
    151      51    1  -0.820000   12.890  33.675  -0.368   # O
    152      51    2   0.410000   13.601  33.565   0.240  
    153      51    2   0.410000   12.391  34.421  -0.073  
    154      52    1  -0.820000   15.012   9.901  20.580   # O
    155      52    2   0.410000   15.660  10.350  21.107  
    156      52    2   0.410000   14.522  10.579  20.134  
    157      53    1  -0.820000   35.300   5.100  10.938   # O
    158      53    2   0.410000   36.187   4.934  11.213  
    159      53    2   0.410000   34.758   5.015  11.709  
    160      54    1  -0.820000    6.834  33.823  21.199   # O
    161      54    2   0.410000    6.265  34.039  20.480  
    162      54    2   0.410000    6.943  32.886  21.188  
    163      55    1  -0.820000   13.655   3.974  33.792   # O
    164      55    2   0.410000   14.294   3.301  33.949  
    165      55    2   0.410000   13.947   4.741  34.264  
    166      56    1  -0.820000   27.216  19.753   4.983   # O
    167      56    2   0.410000   27.710  20.166   5.674  
    168      56    2   0.410000   27.771  19.079   4.622  
    169      57    1  -0.820000   19.322   9.395  22.358   # O
    170      57    2   0.410000   20.172   9.803  22.377  
    171      57    2   0.410000   19.455   8.513  22.037  
    172      58    1  -0.820000   30.447  37.450  18.122   # O
    173      58    2   0.410000   29.534  37.485  17.874  
    174      58    2   0.410000   30.915  37.126  17.370  
    175      59    1  -0.820000   24.079  30.742   5.956   # O
    176      59    2   0.410000   23.883  31.655   5.809  
    177      59    2   0.410000   23.278  30.267   5.801  
    178      60    1  -0.820000   23.413  31.155  37.600   # O
    179      60    2   0.410000   23.366  32.043  37.920  
    180      60    2   0.410000   23.573  30.608  38.354  
    181      61    1  -0.820000   23.466   7.217  34.661   # O
    182      61    2   0.410000   23.766   7.039  35.537  
    183      61    2   0.410000   23.750   6.494  34.125  
    184      62    1  -0.820000   13.278   8.180   7.790   # O
    185      62    2   0.410000   13.211   8.703   7.008  
    186      62    2   0.410000   13.681   7.364   7.535  
    187      63    1  -0.820000   23.057  24.010   6.560   # O
    188      63    2   0.410000   22.385  24.450   7.052  
    189      63    2   0.410000   22.677  23.789   5.722  
    190      64    1  -0.820000    0.304  36.406   3.897   # O
    191      64    2   0.410000    0.432  36.425   2.959  
    192      64    2   0.410000    0.427  37.294   4.199  
    193      65    1  -0.820000   30.667   0.971   5.866   # O
    194      65    2   0.410000   30.455   0.902   4.947  
    195      65    2   0.410000   30.468   1.860   6.120  
    196      66    1  -0.820000   18.217  10.517   5.523   # O
    197      66    2   0.410000   19.098  10.296   5.271  
    198      66    2   0.410000   18.283  10.994   6.339  
    199      67    1  -0.820000   34.312   4.678   3.815   # O
    200      67    2   0.410000   35.082   4.961   4.271  
    201      67    2   0.410000   34.363   3.736   3.749  
    202      68    1  -0.820000   23.717  29.593  33.186   # O
    203      68    2   0.410000   24.149  28.828  32.836  
    204      68    2   0.410000   23.289  29.322  33.978  
    205      69    1  -0.820000   27.486   6.930   8.379   # O
    206      69    2   0.410000   26.825   7.220   8.989  
    207      69    2   0.410000   27.819   7.708   7.958  
    208      70    1  -0.820000    4.222  28.688  37.591   # O
    209      70    2   0.410000    5.133  28.480  37.691  
    210      70    2   0.410000    3.933  28.297  36.787  
    211      71    1  -0.820000   36.116   4.027  15.561   # O
    212      71    2   0.410000   35.892   4.606  16.277  
    213      71    2   0.410000   35.306   3.677  15.234  
    214      72    1  -0.820000    8.022  35.078  33.861   # O
    215      72    2   0.410000    8.928  35.057  33.594  
    216      72    2   0.410000    7.888  35.918  34.279  
    217      73    1  -0.820000   34.765  32.580  29.977   # O
    218      73    2   0.410000   33.993  32.347  29.479  
    219      73    2   0.410000   34.960  31.834  30.525  
    220      74    1  -0.820000   37.730  34.195   4.318   # O
    221      74    2   0.410000   38.414  34.843   4.307  
    222      74    2   0.410000   38.155  33.353   4.371  
    223      75    1  -0.820000   27.903  34.358  21.747   # O
    224      75    2   0.410000   27.296  33.815  21.279  
    225      75    2   0.410000   27.510  35.216  21.812  
    226      76    1  -0.820000    7.716   9.223  24.024   # O
    227      76    2   0.410000    8.289   9.942  24.219  
    228      76    2   0.410000    6.911   9.375  24.491  
    229      77    1  -0.820000    3.258  35.024  -0.171   # O
    230      77    2   0.410000    3.536  34.644   0.652  
    231      77    2   0.410000    4.029  35.401  -0.563  
    232      78    1  -0.820000   24.007  38.342  35.571   # O
    233      78    2   0.410000   24.812  38.810  35.688  
    234      78    2   0.410000   23.938  37.730  36.288  
    235      79    1  -0.820000   24.208  17.901  38.301   # O
    236      79    2   0.410000   23.984  17.342  39.030  
    237      79    2   0.410000   23.418  18.379  38.081  
    238      80    1  -0.820000   19.041   8.918  12.646   # O
    239      80    2   0.410000   18.817   8.022  12.832  
    240      80    2   0.410000   19.951   9.024  12.870  
    241      81    1  -0.820000   10.010  32.018  16.339   # O
    242      81    2   0.410000    9.818  32.589  15.613  
    243      81    2   0.410000    9.791  31.144  16.065  
    244      82    1  -0.820000    5.115  34.483  35.399   # O
    245      82    2   0.410000    5.184  34.395  34.459  
    246      82    2   0.410000    5.900  34.935  35.679  
    247      83    1  -0.820000    9.306   4.724  33.671   # O
    248      83    2   0.410000    9.309   4.940  34.592  
    249      83    2   0.410000    9.968   5.258  33.267  
    250      84    1  -0.820000    5.161  37.639  29.131   # O
    251      84    2   0.410000    4.771  36.852  28.788  
    252      84    2   0.410000    5.568  37.404  29.951  
    253      85    1  -0.820000   28.507   1.123   8.792   # O
    254      85    2   0.410000   29.386   0.779   8.791  
    255      85    2   0.410000   28.132   0.904   7.951  
    256      86    1  -0.820000   21.000  28.433  14.122   # O
    257      86    2   0.410000   21.916  28.294  13.943  
    258      86    2   0.410000   20.767  29.251  13.710  
    259      87    1  -0.820000   12.421   7.951   1.829   # O
    260      87    2   0.410000   13.139   7.380   1.597  
    261      87    2   0.410000   12.210   8.444   1.056  
    262      88    1  -0.820000   24.384   4.389  26.042   # O
    263      88    2   0.410000   24.017   4.554  26.901  
    264      88    2   0.410000   24.153   3.507  25.817  
    265      89    1  -0.820000   16.254  13.832   4.867   # O
    266      89    2   0.410000   16.143  13.792   5.800  
    267      89    2   0.410000   15.923  13.023   4.515  
    268      90    1  -0.820000   12.150   2.778  15.348   # O
    269      90    2   0.410000   11.358   2.445  14.952  
    270      90    2   0.410000   11.886   3.422  15.982  
    271      91    1  -0.820000   26.302  16.043  21.229   # O
    272      91    2   0.410000   25.486  16.427  21.520  
    273      91    2   0.410000   26.631  16.603  20.546  
    274      92    1  -0.820000   35.918   4.464  38.206   # O
    275      92    2   0.410000   36.432   3.709  38.446  
    276      92    2   0.410000   35.487   4.254  37.397  
    277      93    1  -0.820000   21.124  26.554  27.881   # O
    278      93    2   0.410000   21.344  25.869  27.269  
    279      93    2   0.410000   20.454  26.207  28.445  
    280      94    1  -0.820000   30.754  25.116  10.408   # O
    281      94    2   0.410000   30.834  25.937   9.950  
    282      94    2   0.410000   31.090  24.450   9.835  
    283      95    1  -0.820000   10.461  23.788  14.872   # O
    284      95    2   0.410000   10.838  24.131  14.079  
    285      95    2   0.410000    9.969  24.495  15.264  
    286      96    1  -0.820000   16.854  17.870   5.890   # O
    287      96    2   0.410000   17.467  18.569   6.029  
    288      96    2   0.410000   17.346  17.145   5.529  
    289      97    1  -0.820000   29.871  29.084   5.360   # O
    290      97    2   0.410000   29.188  28.681   5.871  
    291      97    2   0.410000   30.688  28.860   5.777  
    292      98    1  -0.820000   12.221  27.649  20.596   # O
    293      98    2   0.410000   12.982  27.982  21.048  
    294      98    2   0.410000   11.874  26.955  21.125  
    295      99    1  -0.820000    7.702   4.003  12.810   # O
    296      99    2   0.410000    8.282   4.688  12.511  
    297      99    2   0.410000    7.069   4.415  13.375  
    298     100    1  -0.820000   28.492  22.973  22.078   # O
    299     100    2   0.410000   28.132  23.444  21.346  
    300     100    2   0.410000   28.984  23.596  22.588  
    301     101    1  -0.820000   19.456  33.560  32.598   # O
    302     101    2   0.410000   19.504  33.377  33.521  
    303     101    2   0.410000   18.789  34.214  32.482  
    304     102    1  -0.820000    4.826  36.887  22.671   # O
    305     102    2   0.410000    4.322  37.662  22.482  
    306     102    2   0.410000    4.553  36.590  23.525  
    307     103    1  -0.820000   23.646   0.827  17.095   # O
    308     103    2   0.410000   24.436   1.343  17.110  
    309     103    2   0.410000   23.214   1.010  16.280  
    310     104    1  -0.820000   30.394  17.914  29.931   # O
    311     104    2   0.410000   31.044  18.582  30.095  
    312     104    2   0.410000   29.552  18.330  30.044  
    313     105    1  -0.820000   21.028  20.674   5.623   # O
    314     105    2   0.410000   21.568  21.422   5.427  
    315     105    2   0.410000   21.547  20.104   6.171  
    316     106    1  -0.820000   28.306  37.631  14.476   # O
    317     106    2   0.410000   28.385  37.260  15.343  
    318     106    2   0.410000   27.400  37.538  14.227  
    319     107    1  -0.820000   38.905  33.041  36.818   # O
    320     107    2   0.410000   38.968  32.464  36.077  
    321     107    2   0.410000   38.522  32.545  37.522  
    322     108    1  -0.820000    8.318  36.191  24.158   # O
    323     108    2   0.410000    9.063  36.575  24.583  
    324     108    2   0.410000    8.484  36.234  23.228  
    325     109    1  -0.820000   -0.484  23.175   1.569   # O
    326     109    2   0.410000    0.432  23.289   1.780  
    327     109    2   0.410000   -0.725  23.902   1.020  
    328     110    1  -0.820000   28.877  16.095  25.793   # O
    329     110    2   0.410000   28.793  15.251  26.208  
    330     110    2   0.410000   28.646  15.976  24.888  
    331     111    1  -0.820000    6.825   2.317  18.405   # O
    332     111    2   0.410000    6.424   2.859  19.063  
    333     111    2   0.410000    7.280   1.627  18.865  
    334     112    1  -0.820000   17.986  14.633  25.968   # O
    335     112    2   0.410000   18.666  14.890  26.571  
    336     112    2   0.410000   17.606  15.429  25.633  
    337     113    1  -0.820000   33.699   4.858   0.953   # O
    338     113    2   0.410000   33.725   4.611   1.864  
    339     113    2   0.410000   34.580   5.093   0.712  
    340     114    1  -0.820000   21.952  34.569  20.221   # O
    341     114    2   0.410000   22.483  35.091  19.637  
    342     114    2   0.410000   21.351  35.165  20.639  
    343     115    1  -0.820000   23.066  13.779  28.273   # O
    344     115    2   0.410000   22.509  13.314  27.668  
    345     115    2   0.410000   23.933  13.768  27.903  
    346     116    1  -0.820000    6.179  31.296   0.253   # O
    347     116    2   0.410000    6.548  32.162   0.189  
    348     116    2   0.410000    5.301  31.398   0.582  
    349     117    1  -0.820000   -0.465  32.938  31.084   # O
    350     117    2   0.410000   -0.637  32.012  31.139  
    351     117    2   0.410000    0.131  33.146  31.784  
    352     118    1  -0.820000   34.311  16.915  14.745   # O
    353     118    2   0.410000   35.244  17.043  14.792  
    354     118    2   0.410000   34.161  15.989  14.880  
    355     119    1  -0.820000    8.243  14.986   2.835   # O
    356     119    2   0.410000    7.316  14.871   2.989  
    357     119    2   0.410000    8.535  15.644   3.447  
    358     120    1  -0.820000   33.750  21.114  16.794   # O
    359     120    2   0.410000   33.837  20.218  17.079  
    360     120    2   0.410000   32.886  21.195  16.420  
    361     121    1  -0.820000    1.164   5.632  13.292   # O
    362     121    2   0.410000    1.281   4.984  12.618  
    363     121    2   0.410000    1.766   6.337  13.094  
    364     122    1  -0.820000   11.717  12.478  36.522   # O
    365     122    2   0.410000   11.874  12.568  37.449  
    366     122    2   0.410000   12.082  11.643  36.269  
    367     123    1  -0.820000    8.283   7.858  15.224   # O
    368     123    2   0.410000    8.282   8.670  14.740  
    369     123    2   0.410000    8.894   7.968  15.934  
    370     124    1  -0.820000   20.266   1.433  31.302   # O
    371     124    2   0.410000   20.338   2.007  32.050  
    372     124    2   0.410000   19.347   1.336  31.122  
    373     125    1  -0.820000   14.281  14.822  30.352   # O
    374     125    2   0.410000   13.462  15.288  30.434  
    375     125    2   0.410000   14.175  14.214  29.641  
    376     126    1  -0.820000   10.333  22.893  29.969   # O
    377     126    2   0.410000    9.588  22.978  29.399  
    378     126    2   0.410000   10.121  23.350  30.767  
    379     127    1  -0.820000    9.141  18.980  28.276   # O
    380     127    2   0.410000   10.010  18.652  28.449  
    381     127    2   0.410000    8.549  18.256  28.417  
    382     128    1  -0.820000   15.780  26.895  27.424   # O
    383     128    2   0.410000   16.095  26.180  27.955  
    384     128    2   0.410000   14.840  26.799  27.380  
    385     129    1  -0.820000   15.497   9.508   1.135   # O
    386     129    2   0.410000   14.731  10.056   1.121  
    387     129    2   0.410000   15.665   9.247   0.245  
    388     130    1  -0.820000   19.974  18.693  12.425   # O
    389     130    2   0.410000   19.637  18.026  11.842  
    390     130    2   0.410000   20.911  18.590  12.433  
    391     131    1  -0.820000   35.918  38.001  18.993   # O
    392     131    2   0.410000   36.121  37.112  19.222  
    393     131    2   0.410000   35.760  38.014  18.062  
    394     132    1  -0.820000   37.596  23.081   9.308   # O
    395     132    2   0.410000   38.278  23.711   9.479  
    396     132    2   0.410000   37.774  22.716   8.455  
    397     133    1  -0.820000   25.178  22.435  26.447   # O
    398     133    2   0.410000   25.346  21.553  26.738  
    399     133    2   0.410000   24.239  22.516  26.362  
    400     134    1  -0.820000   25.384  15.067  13.999   # O
    401     134    2   0.410000   25.211  14.241  14.422  
    402     134    2   0.410000   24.557  15.396  13.693  
    403     135    1  -0.820000   37.561  -0.055   0.480   # O
    404     135    2   0.410000   36.793  -0.450   0.101  
    405     135    2   0.410000   37.414  -0.024   1.414  
    406     136    1  -0.820000    9.913  17.237  15.039   # O
    407     136    2   0.410000    9.159  17.244  15.610  
    408     136    2   0.410000   10.056  16.341  14.789  
    409     137    1  -0.820000   29.671  13.009  34.790   # O
    410     137    2   0.410000   30.053  13.501  34.079  
    411     137    2   0.410000   30.202  12.232  34.892  
    412     138    1  -0.820000   21.775   0.638  27.130   # O
    413     138    2   0.410000   22.061   0.802  28.005  
    414     138    2   0.410000   21.792  -0.302  27.005  
    415     139    1  -0.820000   31.072  37.056   0.012   # O
    416     139    2   0.410000   31.664  36.323  -0.014  
    417     139    2   0.410000   31.558  37.787   0.357  
    418     140    1  -0.820000   35.638  38.111  37.972   # O
    419     140    2   0.410000   35.330  38.610  37.232  
    420     140    2   0.410000   35.729  37.219  37.677  
    421     141    1  -0.820000   13.140  29.598  31.439   # O
    422     141    2   0.410000   12.918  30.096  30.669  
    423     141    2   0.410000   13.979  29.918  31.733  
    424     142    1  -0.820000    8.310  24.542   7.309   # O
    425     142    2   0.410000    7.463  24.246   7.008  
    426     142    2   0.410000    8.240  24.648   8.244  
    427     143    1  -0.820000   36.003  17.068  11.923   # O
    428     143    2   0.410000   36.874  17.200  11.594  
    429     143    2   0.410000   35.661  17.922  12.140  
    430     144    1  -0.820000   29.876  31.018  17.344   # O
    431     144    2   0.410000   29.666  31.283  16.463  
    432     144    2   0.410000   30.223  31.786  17.778  
    433     145    1  -0.820000   24.299  19.024  15.488   # O
    434     145    2   0.410000   23.549  19.521  15.205  
    435     145    2   0.410000   24.014  18.474  16.196  
    436     146    1  -0.820000   28.922   2.135  25.012   # O
    437     146    2   0.410000   29.607   1.799  25.566  
    438     146    2   0.410000   28.136   1.665  25.235  
    439     147    1  -0.820000   27.178  21.942  30.059   # O
    440     147    2   0.410000   26.860  22.032  30.946  
    441     147    2   0.410000   26.968  22.744  29.615  
    442     148    1  -0.820000   19.719   6.477   4.171   # O
    443     148    2   0.410000   20.605   6.375   4.484  
    444     148    2   0.410000   19.749   7.127   3.486  
    445     149    1  -0.820000   23.938  23.912   2.971   # O
    446     149    2   0.410000   24.357  23.316   3.576  
    447     149    2   0.410000   24.075  24.781   3.314  
    448     150    1  -0.820000   36.779  29.970   9.289   # O
    449     150    2   0.410000   36.280  29.939  10.085  
    450     150    2   0.410000   37.373  29.238   9.308  
    451     151    1  -0.820000   24.282   9.336  18.982   # O
    452     151    2   0.410000   24.673   9.854  18.299  
    453     151    2   0.410000   24.350   9.841  19.779  
    454     152    1  -0.820000    8.046  35.057   9.006   # O
    455     152    2   0.410000    7.881  35.372   8.139  
    456     152    2   0.410000    8.546  34.264   8.927  
    457     153    1  -0.820000   12.704   6.266  24.455   # O
    458     153    2   0.410000   13.140   5.742  25.109  
    459     153    2   0.410000   13.135   6.087  23.635  
    460     154    1  -0.820000   27.367  11.123  20.624   # O
    461     154    2   0.410000   27.192  11.721  21.338  
    462     154    2   0.410000   27.804  10.378  21.001  
    463     155    1  -0.820000   -0.282  24.067   5.830   # O
    464     155    2   0.410000    0.155  23.382   6.315  
    465     155    2   0.410000   -0.607  24.681   6.470  
    466     156    1  -0.820000   20.823   4.080  36.511   # O
    467     156    2   0.410000   20.994   4.852  36.001  
    468     156    2   0.410000   21.665   3.724  36.757  
    469     157    1  -0.820000   21.918  28.886   5.995   # O
    470     157    2   0.410000   22.379  28.517   5.268  
    471     157    2   0.410000   21.143  28.358   6.126  
    472     158    1  -0.820000    4.833  23.634   4.238   # O
    473     158    2   0.410000    4.458  24.307   3.689  
    474     158    2   0.410000    5.706  23.480   3.916  
    475     159    1  -0.820000    0.990  11.636  25.528   # O
    476     159    2   0.410000    1.036  10.847  25.014  
    477     159    2   0.410000    1.698  11.596  26.151  
    478     160    1  -0.820000   22.599   9.356   9.463   # O
    479     160    2   0.410000   22.844   8.889   8.677  
    480     160    2   0.410000   21.657   9.437   9.441  
    481     161    1  -0.820000   17.493   3.467  34.650   # O
    482     161    2   0.410000   17.236   3.653  35.542  
    483     161    2   0.410000   17.015   4.077  34.105  
    484     162    1  -0.820000    2.305  10.382  34.995   # O
    485     162    2   0.410000    1.947   9.591  35.359  
    486     162    2   0.410000    3.165  10.166  34.667  