LAMMPS data file for the a99SB-disp water model (explicit)

 8000 atoms
 0 bonds
 0 angles
 0 dihedrals
 0 impropers

 3 atom types
 0 bond types
 0 angle types
 0 dihedral types
 0 improper types

0.000000 39.172690 xlo xhi
0.000000 39.172690 ylo yhi
0.000000 39.172690 zlo zhi

Masses

  1   15.999000  # O
  2    1.008000  # H
  3    1.e-16    # M

# Pair Coeffs
#
# 1  O1
# 2  H1 H2
# 3  M1

# Bond Coeffs
#
# 1    500.000000   0.957200   # O-H
# 2    500.000000   0.154600   # O-M

# Angle Coeffs
#
# 1  H1-M1-H2
# 2  H1-M1-O1
# 3  50.000000  104.520000    H1-O1-H2
# 4  H1-O1-M1
# 5  H2-M1-O1
# 6  H2-O1-M1
# 7  M1-H1-O1
# 8  M1-H2-O1

 Atoms # full

1    1    1  0.000000  24.701994       14.852705       36.530531 # O1  
2    1    2  0.590000  25.464027       14.876539       35.951767 # H1  
3    1    2  0.590000  24.828541       15.592561       37.124526 # H2  
4    1    3 -1.180000  24.819231       14.953464       36.532541 # M1  
5    2    1  0.000000  37.229225        8.418915       23.471379 # O1  
6    2    2  0.590000  36.484711        9.020153       23.450337 # H1  
7    2    2  0.590000  37.998254        8.988735       23.459990 # H2  
8    2    3 -1.180000  37.232459        8.573422       23.467100 # M1  
9    3    1  0.000000   2.929760       34.193479        9.327094 # O1
10   3    2  0.590000   3.871685       34.363665        9.320449 # H1
11   3    2  0.590000   2.858251       33.239023        9.315666 # H2
12   3    3 -1.180000   3.044601       34.090004        9.324710 # M1
13   4    1  0.000000   5.250119       36.769656        9.100076 # O1
14   4    2  0.590000   5.692092       36.001156        9.461045 # H1
15   4    2  0.590000   4.379082       36.454383        8.858980 # H2
16   4    3 -1.180000   5.193509       36.626665        9.115892 # M1
17   5    1  0.000000  30.896186       35.654387       17.704872 # O1  
18   5    2  0.590000  30.728396       36.592615       17.616522 # H1  
19   5    2  0.590000  31.839050       35.592576       17.857901 # H2  
20   5    3 -1.180000  30.998448       35.770019       17.713406 # M1  
21   6    1  0.000000  10.210496        0.536157       26.904044 # O1  
22   6    2  0.590000  11.139435        0.550097       27.134498 # H1  
23   6    2  0.590000  10.039632        1.406181       26.543357 # H2  
24   6    3 -1.180000  10.310515        0.652785       26.886861 # M1  
25   7    1  0.000000  17.588667        1.497807       21.524194 # O1  
26   7    2  0.590000  16.736729        1.470819       21.088643 # H1  
27   7    2  0.590000  17.822845        0.578334       21.650529 # H2  
28   7    3 -1.180000  17.507161        1.372933       21.483397 # M1  
29   8    1  0.000000  29.093572       31.339800       18.938265 # O1  
30   8    2  0.590000  30.046738       31.387061       19.012235 # H1  
31   8    2  0.590000  28.859290       32.080166       18.378620 # H2  
32   8    3 -1.180000  29.188420       31.443718       18.874186 # M1  
33   9    1  0.000000   7.446594       22.329933       18.729743 # O1  
34   9    2  0.590000   8.227060       21.832498       18.485487 # H1  
35   9    2  0.590000   7.740845       23.240398       18.756236 # H2  
36   9    3 -1.180000   7.588390       22.384428       18.701012 # M1  
37   10   1  0.000000  35.054409       28.046288       34.577162 # O1  
38   10   2  0.590000  35.313683       27.235799       35.015472 # H1  
39   10   2  0.590000  35.880693       28.487527       34.380201 # H2  
40   10   3 -1.180000  35.197635       27.997570       34.609005 # M1  
41   11   1  0.000000   5.582941        3.924187       30.501429 # O1
42   11   2  0.590000   6.229744        3.551166       31.100372 # H1
43   11   2  0.590000   4.963397        3.211871       30.343315 # H2
44   11   3 -1.180000   5.586538        3.780990       30.559591 # M1
45   12   1  0.000000  11.473992       17.685994       30.184500 # O1  
46   12   2  0.590000  12.424698       17.584897       30.137939 # H1  
47   12   2  0.590000  11.343270       18.528773       30.619087 # H2  
48   12   3 -1.180000  11.582178       17.783850       30.235695 # M1  
49   13   1  0.000000  15.521099       25.318224       19.233141 # O1  
50   13   2  0.590000  16.397201       25.495214       19.575705 # H1  
51   13   2  0.590000  15.351612       26.037298       18.624505 # H2  
52   13   3 -1.180000  15.614328       25.436448       19.198036 # M1  
53   14   1  0.000000  28.947729       11.070530       13.722514 # O1  
54   14   2  0.590000  28.896586       10.336730       14.335010 # H1  
55   14   2  0.590000  28.106646       11.518300       13.813685 # H2  
56   14   3 -1.180000  28.830011       11.032792       13.815354 # M1  
57   15   1  0.000000  21.917570       10.571427       11.160531 # O1  
58   15   2  0.590000  21.949008       10.054625       11.965614 # H1  
59   15   2  0.590000  22.041764        9.931524       10.459581 # H2  
60   15   3 -1.180000  21.938104       10.418814       11.174270 # M1  
61   16   1  0.000000  19.624878       23.599466        3.841382 # O1  
62   16   2  0.590000  18.968703       23.080919        4.306973 # H1  
63   16   2  0.590000  19.145289       23.996599        3.114395 # H2  
64   16   3 -1.180000  19.475028       23.583447        3.806894 # M1  
65   17   1  0.000000  30.060307        6.144107       36.517112 # O1  
66   17   2  0.590000  30.520929        5.450421       36.045033 # H1  
67   17   2  0.590000  30.203459        5.941207       37.441541 # H2  
68   17   3 -1.180000  30.139968        6.025813       36.576794 # M1  
69   18   1  0.000000  31.999849       19.990159       31.959026 # O1  
70   18   2  0.590000  32.561213       19.215527       31.926678 # H1  
71   18   2  0.590000  31.194522       19.685632       32.377288 # H2  
72   18   3 -1.180000  31.967661       19.847777       32.009943 # M1  
73   19   1  0.000000  15.183419       28.934757        3.594724 # O1  
74   19   2  0.590000  15.246303       28.170233        3.022204 # H1  
75   19   2  0.590000  14.803199       29.617697        3.042224 # H2  
76   19   3 -1.180000  15.141550       28.923993        3.446292 # M1  
77   20   1  0.000000  32.268376        7.814232        7.896823 # O1
78   20   2  0.590000  31.894520        6.933079        7.891112 # H1
79   20   2  0.590000  31.551671        8.377117        8.189613 # H2
80   20   3 -1.180000  32.124489        7.772241        7.934700 # M1
81   21   1  0.000000   0.400622       30.959308       29.924935 # O1  
82   21   2  0.590000   0.749514       30.894987       29.035908 # H1  
83   21   2  0.590000   0.392425       30.057372       30.245363 # H2  
84   21   3 -1.180000   0.445573       30.831822       29.849915 # M1  
85   22   1  0.000000   2.180154       18.852944        0.138228 # O1
86   22   2  0.590000   1.844802       18.003475        0.424884 # H1
87   22   2  0.590000   1.418653       19.432368        0.163050 # H2
88   22   3 -1.180000   2.035438       18.817315        0.179324 # M1
89   23   1  0.000000   4.303321       36.177161       18.596907 # O1  
90   23   2  0.590000   4.006421       35.289359       18.796631 # H1  
91   23   2  0.590000   5.237904       36.082041       18.413226 # H2  
92   23   3 -1.180000   4.387456       36.047476       18.599023 # M1  
93   24   1  0.000000  31.668384        2.284382       30.790267 # O1  
94   24   2  0.590000  31.847121        1.559837       30.190834 # H1  
95   24   2  0.590000  32.301004        2.170677       31.499558 # H2  
96   24   3 -1.180000  31.775432        2.173785       30.804761 # M1  
97   25   1  0.000000  10.857244       13.912215        4.838873 # O1  
98   25   2  0.590000  10.649886       14.712626        5.321135 # H1  
99   25   2  0.590000  11.597056       13.531659        5.312250 # H2  
100  25   3 -1.180000  10.927495       13.967610        4.964958 # M1  
101  26   1  0.000000  15.331600       13.408322        8.177141 # O1  
102  26   2  0.590000  14.435299       13.743653        8.156443 # H1  
103  26   2  0.590000  15.231093       12.458775        8.244147 # H2  
104  26   3 -1.180000  15.200083       13.327283        8.183251 # M1  
105  27   1  0.000000  14.320345       16.002017        4.500324 # O1  
106  27   2  0.590000  14.103503       15.073038        4.421539 # H1  
107  27   2  0.590000  15.275335       16.021113        4.562453 # H2  
108  27   3 -1.180000  14.417734       15.881969        4.498126 # M1  
109  28   1  0.000000  26.471449        7.851551       18.353359 # O1  
110  28   2  0.590000  26.760715        8.758851       18.450115 # H1  
111  28   2  0.590000  27.086881        7.468837       17.728055 # H2  
112  28   3 -1.180000  26.590813        7.920763       18.283623 # M1  
113  29   1  0.000000   4.748110       23.962644       32.368479 # O1  
114  29   2  0.590000   5.641210       24.306873       32.378961 # H1  
115  29   2  0.590000   4.190898       24.740939       32.370265 # H2  
116  29   3 -1.180000   4.792426       24.110747       32.370098 # M1  
117  30   1  0.000000   2.060597        2.573027       35.506491 # O1
118  30   2  0.590000   1.827113        3.409705       35.104389 # H1
119  30   2  0.590000   2.943932        2.709577       35.848989 # H2
120  30   3 -1.180000   2.146337        2.701433       35.498627 # M1
121  31   1  0.000000  10.634485       11.616689        0.601885 # O1  
122  31   2  0.590000   9.858924       12.177564        0.589419 # H1
123  31   2  0.590000  11.371971       12.226891        0.601724 # H2  
124  31   3 -1.180000  10.629462       11.771198        0.600219 # M1  
125  32   1  0.000000  21.121819       13.779597       11.605388 # O1  
126  32   2  0.590000  20.569344       13.284134       11.000805 # H1  
127  32   2  0.590000  21.772164       14.202396       11.044563 # H2  
128  32   3 -1.180000  21.134731       13.770010       11.451626 # M1  
129  33   1  0.000000  29.369135       36.113688       29.142260 # O1  
130  33   2  0.590000  29.381738       36.016786       28.190062 # H1  
131  33   2  0.590000  29.717770       35.285620       29.472392 # H2  
132  33   3 -1.180000  29.416796       35.991649       29.060186 # M1  
133  34   1  0.000000   6.241018       32.673112       28.268819 # O1  
134  34   2  0.590000   5.468099       33.154416       28.564069 # H1  
135  34   2  0.590000   6.891679       33.351526       28.088189 # H2  
136  34   3 -1.180000   6.224888       32.826123       28.283941 # M1  
137  35   1  0.000000   8.603131       13.613730       20.193679 # O1  
138  35   2  0.590000   8.688109       12.661442       20.240124 # H1  
139  35   2  0.590000   7.683761       13.782951       20.399479 # H2  
140  35   3 -1.180000   8.493043       13.510414       20.226960 # M1  
141  36   1  0.000000  34.604942        5.869010       14.273360 # O1  
142  36   2  0.590000  35.082071        5.277783       13.691097 # H1  
143  36   2  0.590000  35.085244        6.695411       14.222337 # H2  
144  36   3 -1.180000  34.731263        5.900038       14.189806 # M1  
145  37   1  0.000000  35.413662        9.238307       17.941170 # O1  
146  37   2  0.590000  35.928623        8.442063       17.810626 # H1  
147  37   2  0.590000  34.592543        8.932574       18.326553 # H2  
148  37   3 -1.180000  35.373269        9.092915       17.974793 # M1  
149  38   1  0.000000  27.738827       26.660498       24.658698 # O1  
150  38   2  0.590000  27.308741       26.480377       25.494648 # H1  
151  38   2  0.590000  27.311147       26.071611       24.036980 # H2  
152  38   3 -1.180000  27.625655       26.559036       24.686963 # M1  
153  39   1  0.000000  23.322004        8.251665       35.235225 # O1  
154  39   2  0.590000  23.141268        9.178914       35.389417 # H1  
155  39   2  0.590000  23.863906        7.986004       35.978190 # H2  
156  39   3 -1.180000  23.369655        8.338954       35.353594 # M1  
157  40   1  0.000000  20.385925       21.576873       10.346744 # O1  
158  40   2  0.590000  19.741223       22.164774        9.953091 # H1  
159  40   2  0.590000  20.336763       20.779336        9.819726 # H2  
160  40   3 -1.180000  20.294378       21.549214       10.225273 # M1  
161  41   1  0.000000   0.806232        9.347659       29.606811 # O1
162  41   2  0.590000   0.269066       10.139904       29.601172 # H1  
163  41   2  0.590000   0.313194        8.727231       30.143667 # H2
164  41   3 -1.180000   0.670309        9.370328       29.676899 # M1
165  42   1  0.000000  14.105665       33.199661       26.050501 # O1  
166  42   2  0.590000  14.759996       33.801895       25.696387 # H1  
167  42   2  0.590000  14.300352       32.360877       25.632447 # H2  
168  42   3 -1.180000  14.217683       33.168451       25.948623 # M1  
169  43   1  0.000000  21.832923        1.224017       24.962612 # O1  
170  43   2  0.590000  22.414870        0.487637       25.150528 # H1  
171  43   2  0.590000  22.422610        1.958455       24.792019 # H2  
172  43   3 -1.180000  21.987506        1.223761       24.964898 # M1  
173  44   1  0.000000  19.548655       29.069709        7.115178 # O1  
174  44   2  0.590000  18.617107       28.921090        6.952814 # H1  
175  44   2  0.590000  19.625818       30.018109        7.219167 # H2  
176  44   3 -1.180000  19.435929       29.175230        7.107476 # M1  
177  45   1  0.000000  16.880599       17.555020       22.399992 # O1  
178  45   2  0.590000  17.718146       17.091651       22.394010 # H1  
179  45   2  0.590000  16.223176       16.861719       22.457965 # H2  
180  45   3 -1.180000  16.904364       17.402411       22.406851 # M1  
181  46   1  0.000000  30.951177       14.182893       24.040828 # O1  
182  46   2  0.590000  31.235089       13.281153       23.890864 # H1  
183  46   2  0.590000  31.764771       14.677219       24.140524 # H2  
184  46   3 -1.180000  31.095980       14.129140       24.034196 # M1  
185  47   1  0.000000  10.630171        2.259316        8.853727 # O1
186  47   2  0.590000   9.967925        1.863791        8.286964 # H1
187  47   2  0.590000  10.926268        3.032548        8.373447 # H2
188  47   3 -1.180000  10.581862        2.309150        8.715583 # M1
189  48   1  0.000000  25.041920       25.070255        5.404082 # O1  
190  48   2  0.590000  24.693047       25.950821        5.542363 # H1  
191  48   2  0.590000  24.524115       24.717903        4.680234 # H2  
192  48   3 -1.180000  24.927572       25.139946        5.326824 # M1  
193  49   1  0.000000  32.158723       26.646941       22.284576 # O1  
194  49   2  0.590000  31.847085       25.793470       21.983412 # H1  
195  49   2  0.590000  31.588942       27.278867       21.846113 # H2  
196  49   3 -1.180000  32.042431       26.617711       22.186991 # M1  
197  50   1  0.000000   1.371864        5.897950       10.409615 # O1
198  50   2  0.590000   2.121304        5.397708       10.086615 # H1
199  50   2  0.590000   0.624885        5.309809       10.298508 # H2
200  50   3 -1.180000   1.372189        5.754351       10.352340 # M1
201  51   1  0.000000  18.592011       12.971437        1.855438 # O1  
202  51   2  0.590000  18.116708       12.773322        2.662326 # H1  
203  51   2  0.590000  18.342526       12.271588        1.251950 # H2  
204  51   3 -1.180000  18.496384       12.852962        1.882274 # M1  
205  52   1  0.000000   7.784511        5.697648       14.939371 # O1
206  52   2  0.590000   7.255386        4.949713       14.662151 # H1
207  52   2  0.590000   7.475677        6.423991       14.397820 # H2
208  52   3 -1.180000   7.673953        5.694799       14.831344 # M1
209  53   1  0.000000  17.623334       18.806101       34.674263 # O1  
210  53   2  0.590000  16.856976       19.359759       34.823889 # H1  
211  53   2  0.590000  18.364825       19.340926       34.957782 # H2  
212  53   3 -1.180000  17.620053       18.949713       34.731411 # M1  
213  54   1  0.000000  25.042689       15.151996       17.506841 # O1  
214  54   2  0.590000  24.527154       14.538328       16.983518 # H1  
215  54   2  0.590000  25.952574       14.915756       17.326478 # H2  
216  54   3 -1.180000  25.094718       15.039861       17.413998 # M1  
217  55   1  0.000000  19.259878       22.819802       36.991789 # O1  
218  55   2  0.590000  19.634187       22.201062       37.618913 # H1  
219  55   2  0.590000  19.244459       22.341510       36.162795 # H2  
220  55   3 -1.180000  19.307230       22.675062       36.965155 # M1  
221  56   1  0.000000  37.581703       31.852283       31.030972 # O1  
222  56   2  0.590000  37.999907       32.609276       31.441213 # H1  
223  56   2  0.590000  36.982312       31.518282       31.698357 # H2  
224  56   3 -1.180000  37.557798       31.908092       31.173152 # M1  
225  57   1  0.000000  11.445219       31.474463       25.964044 # O1  
226  57   2  0.590000  12.364814       31.260677       25.806339 # H1  
227  57   2  0.590000  11.442844       32.417422       26.128527 # H2  
228  57   3 -1.180000  11.566235       31.570669       25.964938 # M1  
229  58   1  0.000000  13.737260       24.496070        7.516958 # O1  
230  58   2  0.590000  14.300796       25.267592        7.575370 # H1  
231  58   2  0.590000  13.981166       23.962889        8.273568 # H2  
232  58   3 -1.180000  13.843792       24.527516        7.624490 # M1  
233  59   1  0.000000  11.241027       24.157849        7.493408 # O1  
234  59   2  0.590000  11.035444       24.844712        8.127589 # H1  
235  59   2  0.590000  11.750453       23.517417        7.989958 # H2  
236  59   3 -1.180000  11.281115       24.163975        7.642594 # M1  
237  60   1  0.000000  16.441297       23.104642       17.971184 # O1  
238  60   2  0.590000  16.820317       23.981162       18.036654 # H1  
239  60   2  0.590000  15.884315       23.141493       17.193595 # H2  
240  60   3 -1.180000  16.417817       23.225150       17.877229 # M1  
241  61   1  0.000000  37.135384       36.615575        1.733136 # O1  
242  61   2  0.590000  37.543367       37.199527        1.093777 # H1  
243  61   2  0.590000  36.197060       36.784438        1.647899 # H2  
244  61   3 -1.180000  37.065412       36.714899        1.637534 # M1  
245  62   1  0.000000   3.525732       27.689308        2.323232 # O1
246  62   2  0.590000   3.175822       28.184564        1.582614 # H1
247  62   2  0.590000   4.406729       28.040677        2.452130 # H2
248  62   3 -1.180000   3.595802       27.801010        2.242523 # M1
249  63   1  0.000000   8.040058        7.778161        4.221191 # O1
250  63   2  0.590000   7.597243        6.930692        4.177130 # H1
251  63   2  0.590000   7.330276        8.416370        4.292813 # H2
252  63   3 -1.180000   7.887987        7.750552        4.224827 # M1
253  64   1  0.000000   4.567195       29.899756        0.869873 # O1
254  64   2  0.590000   4.523350       30.705851        0.355558 # H1
255  64   2  0.590000   5.411357       29.512697        0.637909 # H2
256  64   3 -1.180000   4.672787       29.955042        0.771411 # M1
257  65   1  0.000000  35.227014        5.776981        9.990010 # O1
258  65   2  0.590000  34.539305        5.135901       10.169742 # H1  
259  65   2  0.590000  34.768639        6.616445        9.952280 # H2
260  65   3 -1.180000  35.075802        5.803156       10.008746 # M1  
261  66   1  0.000000  15.116441       21.395470       16.007570 # O1  
262  66   2  0.590000  15.949689       21.018913       16.290650 # H1  
263  66   2  0.590000  14.488230       21.116044       16.673530 # H2  
264  66   3 -1.180000  15.143493       21.308921       16.132784 # M1  
265  67   1  0.000000  28.405502        8.633564       10.406475 # O1  
266  67   2  0.590000  28.361262        7.826989        9.892947 # H1
267  67   2  0.590000  28.187264        9.326879        9.783645 # H2
268  67   3 -1.180000  28.370871        8.618620       10.256546 # M1  
269  68   1  0.000000  22.279073       33.956669        4.664979 # O1  
270  68   2  0.590000  21.504403       33.396822        4.613110 # H1  
271  68   2  0.590000  21.945016       34.801223        4.967247 # H2  
272  68   3 -1.180000  22.132790       33.994233        4.698016 # M1  
273  69   1  0.000000  24.644457       28.082286       15.575573 # O1  
274  69   2  0.590000  25.370928       28.197043       16.188193 # H1  
275  69   2  0.590000  24.997694       27.518595       14.887309 # H2  
276  69   3 -1.180000  24.786912       28.023054       15.565592 # M1  
277  70   1  0.000000  11.490554       24.456105       30.110534 # O1  
278  70   2  0.590000  12.283682       24.969091       29.955530 # H1  
279  70   2  0.590000  11.764510       23.547339       29.986750 # H2  
280  70   3 -1.180000  11.631343       24.403887       30.073751 # M1  
281  71   1  0.000000  12.613327        4.625496       12.381024 # O1  
282  71   2  0.590000  13.440212        4.538360       11.906788 # H1  
283  71   2  0.590000  12.796200        5.268465       13.066137 # H2  
284  71   3 -1.180000  12.746553        4.698831       12.408847 # M1  
285  72   1  0.000000  25.841582       10.727181       21.335948 # O1  
286  72   2  0.590000  24.941043       10.461336       21.149971 # H1  
287  72   2  0.590000  26.250806        9.945464       21.707009 # H2  
288  72   3 -1.180000  25.776759       10.588968       21.360367 # M1  
289  73   1  0.000000   1.988154       21.852430       17.229825 # O1  
290  73   2  0.590000   2.597979       21.956577       17.960235 # H1  
291  73   2  0.590000   1.430765       22.629567       17.269882 # H2  
292  73   3 -1.180000   1.995073       21.968704       17.331479 # M1  
293  74   1  0.000000  32.631357       21.255194       28.123287 # O1  
294  74   2  0.590000  33.394774       21.725867       27.788784 # H1  
295  74   2  0.590000  32.857046       20.330324       28.023735 # H2  
296  74   3 -1.180000  32.761857       21.195268       28.066019 # M1  
297  75   1  0.000000  11.473410       27.051240        5.328908 # O1  
298  75   2  0.590000  11.864183       26.222769        5.051124 # H1  
299  75   2  0.590000  10.933521       27.322757        4.586595 # H2  
300  75   3 -1.180000  11.453736       26.977756        5.194319 # M1  
301  76   1  0.000000   7.400694       35.329487       25.194670 # O1  
302  76   2  0.590000   7.574703       34.693563       24.500730 # H1  
303  76   2  0.590000   6.858049       34.854995       25.824452 # H2  
304  76   3 -1.180000   7.352057       35.182981       25.186205 # M1  
305  77   1  0.000000  32.262418       16.319796        0.411658 # O1  
306  77   2  0.590000  32.577239       15.738675        1.104057 # H1  
307  77   2  0.590000  31.545489       15.836859        0.000542 # H2  
308  77   3 -1.180000  32.209365       16.179407        0.448770 # M1  
309  78   1  0.000000  25.948330        9.654377       32.427815 # O1  
310  78   2  0.590000  25.267539        9.661349       33.100648 # H1  
311  78   2  0.590000  25.657635        8.993726       31.799112 # H2  
312  78   3 -1.180000  25.820155        9.568132       32.433637 # M1  
313  79   1  0.000000   7.699045       18.993213        9.255218 # O1
314  79   2  0.590000   8.611368       18.937102        8.971054 # H1
315  79   2  0.590000   7.629679       18.356558        9.966618 # H2
316  79   3 -1.180000   7.810263       18.901811        9.311587 # M1
317  80   1  0.000000  15.090529        4.291722        7.758953 # O1
318  80   2  0.590000  16.030716        4.421384        7.634585 # H1
319  80   2  0.590000  14.713768        5.167203        7.670555 # H2
320  80   3 -1.180000  15.164866        4.424338        7.730881 # M1
321  81   1  0.000000   5.564416       15.280991       24.418601 # O1  
322  81   2  0.590000   5.049032       14.880690       23.718337 # H1  
323  81   2  0.590000   5.729577       16.173566       24.114852 # H2  
324  81   3 -1.180000   5.518208       15.345940       24.286134 # M1  
325  82   1  0.000000  32.492581       20.922584       12.914821 # O1  
326  82   2  0.590000  32.442733       21.106083       13.852944 # H1  
327  82   2  0.590000  33.026595       21.633014       12.559367 # H2  
328  82   3 -1.180000  32.556461       21.040527       12.991697 # M1  
329  83   1  0.000000   0.585930       29.669729       33.338075 # O1  
330  83   2  0.590000   0.000092       30.426677       33.345440 # H1  
331  83   2  0.590000   0.000072       28.912778       33.343354 # H2  
332  83   3 -1.180000   0.431339       29.669728       33.339743 # M1  
333  84   1  0.000000  30.696035        4.025365       18.056703 # O1  
334  84   2  0.590000  31.542944        3.960193       17.615423 # H1  
335  84   2  0.590000  30.442330        4.942697       17.954879 # H2  
336  84   3 -1.180000  30.774301        4.137797       17.985047 # M1  
337  85   1  0.000000   5.222333        8.981228        6.109868 # O1
338  85   2  0.590000   6.176166        8.901453        6.101564 # H1
339  85   2  0.590000   4.905909        8.077851        6.105796 # H2
340  85   3 -1.180000   5.306431        8.851513        6.108235 # M1
341  86   1  0.000000  25.450242       11.960486       11.647224 # O1  
342  86   2  0.590000  25.874067       11.532917       12.391393 # H1  
343  86   2  0.590000  25.418689       12.886262       11.888420 # H2  
344  86   3 -1.180000  25.501998       12.026219       11.777231 # M1  
345  87   1  0.000000   3.363496       30.428452       30.096960 # O1  
346  87   2  0.590000   3.215589       29.621543       29.603753 # H1  
347  87   2  0.590000   2.526408       30.603856       30.526783 # H2  
348  87   3 -1.180000   3.233537       30.345133       30.088597 # M1  
349  88   1  0.000000  -0.000265        2.190039       12.985169 # O1  
350  88   2  0.590000   0.025729        3.146886       12.984442 # H1
351  88   2  0.590000   0.892601        1.925877       13.207068 # H2
352  88   3 -1.180000   0.120967        2.281431       13.014350 # M1
353  89   1  0.000000   1.194223        6.638298       31.713156 # O1
354  89   2  0.590000   1.859035        5.970937       31.543201 # H1
355  89   2  0.590000   1.685060        7.458486       31.764165 # H2
356  89   3 -1.180000   1.346696        6.658462       31.697462 # M1
357  90   1  0.000000   5.243134        2.535880       26.005405 # O1
358  90   2  0.590000   4.706937        1.844078       25.617935 # H1
359  90   2  0.590000   5.484855        3.094391       25.266577 # H2
360  90   3 -1.180000   5.204281        2.518294       25.856804 # M1
361  91   1  0.000000  20.618591       33.191380       34.625746 # O1  
362  91   2  0.590000  20.208939       33.940548       34.193124 # H1  
363  91   2  0.590000  21.393242       33.002511       34.096146 # H2  
364  91   3 -1.180000  20.666748       33.265304       34.498793 # M1  
365  92   1  0.000000  35.152031       12.433397       28.025287 # O1  
366  92   2  0.590000  36.107704       12.482018       28.001690 # H1  
367  92   2  0.590000  34.964024       11.533435       28.291657 # H2  
368  92   3 -1.180000  35.253316       12.321073       28.057318 # M1  
369  93   1  0.000000  32.257936        4.604521       23.575928 # O1  
370  93   2  0.590000  31.313562        4.760627       23.571501 # H1  
371  93   2  0.590000  32.350435        3.701149       23.878574 # H2  
372  93   3 -1.180000  32.145542        4.505928       23.615274 # M1  
373  94   1  0.000000  21.559321        1.691330       21.992583 # O1  
374  94   2  0.590000  22.064641        2.502726       21.942390 # H1  
375  94   2  0.590000  22.219608        0.999803       22.037786 # H2  
376  94   3 -1.180000  21.713109        1.707145       21.991925 # M1  
377  95   1  0.000000   5.240019       25.896148        2.374980 # O1
378  95   2  0.590000   4.623886       25.905383        3.107459 # H1
379  95   2  0.590000   5.949205       26.476948        2.650582 # H2
380  95   3 -1.180000   5.252296       25.973996        2.507984 # M1
381  96   1  0.000000   4.742126        5.876464       24.888664 # O1
382  96   2  0.590000   5.043202        6.580740       25.462754 # H1
383  96   2  0.590000   4.056804        5.434608       25.389991 # H2
384  96   3 -1.180000   4.691429        5.911087       25.030552 # M1
385  97   1  0.000000  35.726229       19.583056       16.210497 # O1  
386  97   2  0.590000  34.966696       19.594304       15.628075 # H1  
387  97   2  0.590000  35.458321       19.028951       16.943588 # H2  
388  97   3 -1.180000  35.590670       19.511433       16.230376 # M1  
389  98   1  0.000000  14.984301       33.293869       33.676181 # O1  
390  98   2  0.590000  15.762294       33.338685       33.120350 # H1  
391  98   2  0.590000  15.319806       33.052781       34.539630 # H2  
392  98   3 -1.180000  15.131213       33.267973       33.716768 # M1  
393  99   1  0.000000  25.096553       37.439282       20.593947 # O1  
394  99   2  0.590000  25.883345       37.976589       20.686090 # H1  
395  99   2  0.590000  24.379789       38.015991       20.858308 # H2  
396  99   3 -1.180000  25.105792       37.586263       20.640984 # M1  
397  100  1  0.000000  33.880972       28.236611       24.605163 # O1  
398  100  2  0.590000  33.292908       28.274017       23.850834 # H1  
399  100  2  0.590000  33.431575       27.669647       25.231921 # H2  
400  100  3 -1.180000  33.744092       28.166742       24.588331 # M1  
401  101  1  0.000000   6.589586       18.806432       18.278296 # O1  
402  101  2  0.590000   7.530004       18.978752       18.231904 # H1  
403  101  2  0.590000   6.522186       17.852539       18.320463 # H2  