LAMMPS data file for the OPC water model (explicit)

 8000 atoms
 0 bonds
 0 angles
 0 dihedrals
 0 impropers

 3 atom types
 0 bond types
 0 angle types
 0 dihedral types
 0 improper types

0.000000 39.150002 xlo xhi
0.000000 39.150002 ylo yhi
0.000000 39.150002 zlo zhi

Masses

  1   15.999000  # O
  2    1.008000  # H
  3    1.e-16    # M

# Pair Coeffs
#
# 1  O1
# 2  H1 H2
# 3  M1

# Bond Coeffs
#
# 1    500.000000   0.872400   # O-H
# 2    500.000000   0.159400   # O-M

# Angle Coeffs
#
# 1  H1-M1-H2
# 2  H1-M1-O1
# 3  50.000000  103.600000    H1-O1-H2
# 4  H1-O1-M1
# 5  H2-M1-O1
# 6  H2-O1-M1
# 7  M1-H1-O1
# 8  M1-H2-O1

 Atoms # full

1    1    1  0.000000  25.135944       15.266391       36.823046 # O1  
2    1    2  0.679100  25.633884       14.627422       36.499232 # H1  
3    1    2  0.679100  24.714969       14.883348       37.484212 # H2  
4    1    3 -1.358200  25.147314       15.115409       36.872883 # M1  
5    2    1  0.000000  37.330396        8.946812       22.874876 # O1  
6    2    2  0.679100  36.885513        9.697218       22.882037 # H1  
7    2    2  0.679100  37.271623        8.665618       23.698622 # H2  
8    2    3 -1.358200  37.255991        9.016128       22.997626 # M1  
9    3    1  0.000000   3.302784       34.136760        9.488083 # O1
10   3    2  0.679100   3.708469       34.321301        8.738119 # H1
11   3    2  0.679100   2.736417       33.511313        9.266441 # H2
12   3    3 -1.358200   3.279047       34.071625        9.344548 # M1
13   4    1  0.000000   5.226268       36.731022        9.115864 # O1
14   4    2  0.679100   4.438358       36.357178        9.138668 # H1
15   4    2  0.679100   5.775051       36.052862        9.111594 # H2
16   4    3 -1.358200   5.190942       36.575610        9.118602 # M1
17   5    1  0.000000  31.385396       35.730225       17.950166 # O1  
18   5    2  0.679100  30.979353       36.433723       17.631887 # H1  
19   5    2  0.679100  32.193440       35.796487       17.628054 # H2  
20   5    3 -1.358200  31.444783       35.843941       17.855561 # M1  
21   6    1  0.000000   9.460499        0.622795       26.299430 # O1  
22   6    2  0.679100  10.159414        0.301179       25.888137 # H1  
23   6    2  0.679100   9.624538        1.478464       26.344205 # H2  
24   6    3 -1.358200   9.587983        0.701691       26.245284 # M1  
25   7    1  0.000000  17.385936        1.710884       22.165977 # O1  
26   7    2  0.679100  17.335992        0.921322       22.533646 # H1  
27   7    2  0.679100  17.722706        1.549135       21.377621 # H2  
28   7    3 -1.358200  17.428308        1.570347       22.103829 # M1  
29   8    1  0.000000  29.033069       31.306650       18.896176 # O1  
30   8    2  0.679100  28.200330       31.083506       18.762630 # H1  
31   8    2  0.679100  29.336989       30.668470       19.407488 # H2  
32   8    3 -1.358200  28.954947       31.179407       18.951983 # M1  
33   9    1  0.000000   7.262466       22.698787       18.787972 # O1  
34   9    2  0.679100   7.846860       23.341396       18.869341 # H1  
35   9    2  0.679100   7.747880       21.974661       18.821076 # H2  
36   9    3 -1.358200   7.420508       22.686745       18.804883 # M1  
37   10   1  0.000000  34.657773       27.990792       34.137452 # O1  
38   10   2  0.679100  35.452887       28.337255       34.043435 # H1  
39   10   2  0.679100  34.807576       27.131356       34.140749 # H2  
40   10   3 -1.358200  34.797365       27.915010       34.124050 # M1  
41   11   1  0.000000   6.061513        3.591479       30.419808 # O1
42   11   2  0.679100   5.933483        4.235104       29.844972 # H1
43   11   2  0.679100   5.406574        3.690246       30.987595 # H2
44   11   3 -1.358200   5.945845        3.701153       30.418767 # M1
45   12   1  0.000000  11.416377       17.441594       30.290279 # O1  
46   12   2  0.679100  11.075102       18.243562       30.328485 # H1  
47   12   2  0.679100  12.276111       17.585888       30.256828 # H2  
48   12   3 -1.358200  11.492969       17.581385       30.290981 # M1  
49   13   1  0.000000  16.050344       25.143600       18.949257 # O1  
50   13   2  0.679100  15.762818       25.733922       18.374861 # H1  
51   13   2  0.679100  15.684717       25.393656       19.700836 # H2  
52   13   3 -1.358200  15.953854       25.267749       18.975432 # M1  
53   14   1  0.000000  28.207394       11.012531       14.098751 # O1  
54   14   2  0.679100  29.061055       11.186193       14.145499 # H1  
55   14   2  0.679100  28.180682       10.153268       13.950308 # H2  
56   14   3 -1.358200  28.329559       10.911247       14.083727 # M1  
57   15   1  0.000000  21.990657       10.118316       11.588154 # O1  
58   15   2  0.679100  22.139938        9.566816       10.928878 # H1  
59   15   2  0.679100  22.680005       10.652642       11.568722 # H2  
60   15   3 -1.358200  22.114548       10.115779       11.487889 # M1  
61   16   1  0.000000  19.339225       23.671286        3.713756 # O1  
62   16   2  0.679100  19.734930       23.056344        4.189515 # H1  
63   16   2  0.679100  18.490489       23.509604        3.834533 # H2  
64   16   3 -1.358200  19.272299       23.556555        3.801882 # M1  
65   17   1  0.000000  29.827078        5.539779       36.238689 # O1  
66   17   2  0.679100  30.319766        6.258959       36.272158 # H1  
67   17   2  0.679100  30.405985        4.891029       36.309903 # H2  
68   17   3 -1.358200  29.985384        5.550183       36.254153 # M1  
69   18   1  0.000000  32.055536       19.558542       32.175649 # O1  
70   18   2  0.679100  31.278142       19.693761       32.547746 # H1  
71   18   2  0.679100  32.202818       20.296473       31.734233 # H2  
72   18   3 -1.358200  31.962450       19.687532       32.165408 # M1  
73   19   1  0.000000  15.153419       28.638459        2.788601 # O1  
74   19   2  0.679100  15.105413       28.921660        3.612358 # H1  
75   19   2  0.679100  14.719635       27.881754        2.806217 # H2  
76   19   3 -1.358200  15.082244       28.568509        2.912897 # M1  
77   20   1  0.000000  31.186599        8.090258        7.963261 # O1
78   20   2  0.679100  32.022420        8.340215        7.965893 # H1
79   20   2  0.679100  31.183497        7.390135        7.442781 # H2
80   20   3 -1.358200  31.309617        8.023755        7.886760 # M1
81   21   1  0.000000   0.221122       30.777060       30.354701 # O1  
82   21   2  0.679100   0.790965       30.481818       29.763775 # H1  
83   21   2  0.679100   0.648404       31.431223       30.742753 # H2  
84   21   3 -1.358200   0.368427       30.830084       30.324731 # M1  
85   22   1  0.000000   2.223428       18.685525        0.634039 # O1
86   22   2  0.679100   1.561667       19.195284        0.382445 # H1
87   22   2  0.679100   2.926493       19.187874        0.513923 # H2
88   22   3 -1.358200   2.229530       18.835044        0.579127 # M1
89   23   1  0.000000   4.100649       36.329442       18.498569 # O1  
90   23   2  0.679100   4.961985       36.467931       18.496907 # H1  
91   23   2  0.679100   4.032711       35.459695       18.495853 # H2  
92   23   3 -1.358200   4.217857       36.221413       18.497922 # M1  
93   24   1  0.000000  31.811754        2.163047       31.002634 # O1  
94   24   2  0.679100  32.276672        1.605277       31.486189 # H1  
95   24   2  0.679100  31.132258        1.685698       30.735230 # H2  
96   24   3 -1.358200  31.780055        2.010130       31.034566 # M1  
97   25   1  0.000000  10.685848       13.865592        5.080791 # O1  
98   25   2  0.679100  10.518296       14.697895        5.281490 # H1  
99   25   2  0.679100  11.485647       13.895293        4.733630 # H2  
100  25   3 -1.358200  10.779249       13.992936        5.059154 # M1  
101  26   1  0.000000  14.810395       12.723911        8.027847 # O1  
102  26   2  0.679100  15.576660       13.097365        8.213460 # H1  
103  26   2  0.679100  14.399160       13.326348        7.549269 # H2  
104  26   3 -1.358200  14.862844       12.868079        7.984568 # M1  
105  27   1  0.000000  13.936339       16.100950        4.256458 # O1  
106  27   2  0.679100  13.539037       15.477922        3.792703 # H1  
107  27   2  0.679100  14.608813       15.685008        4.625040 # H2  
108  27   3 -1.358200  13.976990       15.947464        4.242398 # M1  
109  28   1  0.000000  26.990138        7.468735       18.738027 # O1  
110  28   2  0.679100  27.433190        8.217038       18.668531 # H1  
111  28   2  0.679100  26.171785        7.695543       18.538184 # H2  
112  28   3 -1.358200  26.934695        7.612788       18.698237 # M1  
113  29   1  0.000000   5.357336       24.018841       31.666245 # O1  
114  29   2  0.679100   4.949061       23.794688       30.928580 # H1  
115  29   2  0.679100   5.940220       24.613311       31.405605 # H2  
116  29   3 -1.358200   5.383131       24.073548       31.518766 # M1  
117  30   1  0.000000   2.136857        2.614840       35.223931 # O1
118  30   2  0.679100   2.696288        2.273669       35.799883 # H1
119  30   2  0.679100   2.639370        3.128804       34.729559 # H2
120  30   3 -1.358200   2.293738        2.640366       35.235983 # M1
121  31   1  0.000000  10.406089       12.329571        0.641732 # O1  
122  31   2  0.679100  11.107796       12.051964        1.079481 # H1
123  31   2  0.679100   9.905953       11.617196        0.582851 # H2  
124  31   3 -1.358200  10.435867       12.183321        0.697702 # M1  
125  32   1  0.000000  20.963448       13.265092       11.066586 # O1  
126  32   2  0.679100  21.835694       13.278749       11.057470 # H1  
127  32   2  0.679100  20.750388       14.021525       11.445395 # H2  
128  32   3 -1.358200  21.060830       13.378857       11.121201 # M1  
129  33   1  0.000000  29.309059       35.523758       29.043131 # O1  
130  33   2  0.679100  30.106258       35.350670       29.352318 # H1  
131  33   2  0.679100  29.411100       36.283410       28.626479 # H2  
132  33   3 -1.358200  29.441903       35.610411       29.027255 # M1  
133  34   1  0.000000   6.446449       32.837903       28.293543 # O1  
134  34   2  0.679100   6.236559       32.459645       29.051137 # H1  
135  34   2  0.679100   5.778445       33.378168       28.141995 # H2  
136  34   3 -1.358200   6.316758       32.861836       28.383074 # M1  
137  35   1  0.000000   8.200304       14.216842       20.650476 # O1  
138  35   2  0.679100   8.299350       14.260770       21.516121 # H1  
139  35   2  0.679100   8.054967       13.369304       20.503374 # H2  
140  35   3 -1.358200   8.193465       14.098125       20.756626 # M1  
141  36   1  0.000000  34.775790        6.127841       14.639817 # O1  
142  36   2  0.679100  34.007505        5.888511       14.976777 # H1  
143  36   2  0.679100  34.559056        6.510704       13.886475 # H2  
144  36   3 -1.358200  34.630273        6.149045       14.578305 # M1  
145  37   1  0.000000  34.794928        9.226855       17.798668 # O1  
146  37   2  0.679100  35.557022        9.257020       17.375132 # H1  
147  37   2  0.679100  34.833335        8.473347       18.236655 # H2  
148  37   3 -1.358200  34.913185        9.119995       17.800803 # M1  
149  38   1  0.000000  28.139693       26.958331       24.862538 # O1  
150  38   2  0.679100  28.781303       26.390805       24.697214 # H1  
151  38   2  0.679100  27.663250       26.557098       25.473354 # H2  
152  38   3 -1.358200  28.164093       26.815216       24.928351 # M1  
153  39   1  0.000000  23.452906        8.421081       35.853472 # O1  
154  39   2  0.679100  23.595935        7.680084       35.415810 # H1  
155  39   2  0.679100  23.137470        8.961012       35.245150 # H2  
156  39   3 -1.358200  23.427437        8.391377       35.698949 # M1  
157  40   1  0.000000  20.279008       21.218180        9.877123 # O1  
158  40   2  0.679100  19.426497       21.101264       10.020781 # H1  
159  40   2  0.679100  20.406660       22.058684       10.072930 # H2  
160  40   3 -1.358200  20.171924       21.325076        9.927272 # M1  
161  41   1  0.000000   0.503575        9.519791       29.878264 # O1
162  41   2  0.679100   0.752657        9.480945       29.043080 # H1  
163  41   2  0.679100   0.559414        8.691923       30.147703 # H2
164  41   3 -1.358200   0.548621        9.391752       29.794687 # M1
165  42   1  0.000000  14.458661       32.813571       25.187812 # O1  
166  42   2  0.679100  13.942140       32.179626       25.491789 # H1  
167  42   2  0.679100  13.933645       33.509699       25.158736 # H2  
168  42   3 -1.358200  14.304795       32.822757       25.228423 # M1  
169  43   1  0.000000  21.586319        1.561825       24.885324 # O1  
170  43   2  0.679100  21.745590        0.713257       24.760235 # H1  
171  43   2  0.679100  22.377197        1.899528       25.032131 # H2  
172  43   3 -1.358200  21.726684        1.486355       24.888532 # M1  
173  44   1  0.000000  18.829143       29.448748        6.984401 # O1  
174  44   2  0.679100  19.103323       28.742368        6.552042 # H1  
175  44   2  0.679100  19.412769       29.535295        7.627030 # H2  
176  44   3 -1.358200  18.955866       29.357181        7.015464 # M1  
177  45   1  0.000000  16.790706       17.203789       23.343083 # O1  
178  45   2  0.679100  16.957026       17.688527       24.049092 # H1  
179  45   2  0.679100  17.172358       16.440403       23.523820 # H2  
180  45   3 -1.358200  16.871658       17.162624       23.474081 # M1  
181  46   1  0.000000  31.644103       14.044251       24.028966 # O1  
182  46   2  0.679100  30.969385       14.594615       24.083165 # H1  
183  46   2  0.679100  31.265799       13.266667       23.913511 # H2  
184  46   3 -1.358200  31.488540       14.010684       24.019916 # M1  
185  47   1  0.000000  10.480597        2.338549        8.598602 # O1
186  47   2  0.679100  10.085889        1.639554        8.940207 # H1
187  47   2  0.679100  11.273227        2.042873        8.385540 # H2
188  47   3 -1.358200  10.539382        2.191607        8.617592 # M1
189  48   1  0.000000  23.889122       24.609050        5.266429 # O1  
190  48   2  0.679100  24.342450       25.354401        5.261194 # H1  
191  48   2  0.679100  24.387512       24.062569        4.803776 # H2  
192  48   3 -1.358200  24.029719       24.638429        5.197308 # M1  
193  49   1  0.000000  31.421230       26.650232       22.538255 # O1  
194  49   2  0.679100  32.176501       26.219427       22.609347 # H1  
195  49   2  0.679100  31.656572       27.488143       22.598254 # H2  
196  49   3 -1.358200  31.567573       26.710374       22.557621 # M1  
197  50   1  0.000000   1.226040        5.358925       10.076739 # O1
198  50   2  0.679100   1.275521        6.155088        9.723527 # H1
199  50   2  0.679100   2.010373        5.247484       10.442094 # H2
200  50   3 -1.358200   1.349219        5.460079       10.078532 # M1
201  51   1  0.000000  18.306564       12.401378        2.203271 # O1  
202  51   2  0.679100  17.870663       13.144700        2.067093 # H1  
203  51   2  0.679100  19.141002       12.654638        2.228860 # H2  
204  51   3 -1.358200  18.365440       12.548603        2.186934 # M1  
205  52   1  0.000000   8.335740        5.470502       15.856107 # O1
206  52   2  0.679100   7.914296        5.390337       15.096475 # H1
207  52   2  0.679100   9.133628        5.733748       15.621250 # H2
208  52   3 -1.358200   8.391352        5.497548       15.709192 # M1
209  53   1  0.000000  17.086300       19.207329       34.960845 # O1  
210  53   2  0.679100  16.823160       18.855520       34.207141 # H1  
211  53   2  0.679100  17.818592       18.770946       35.146318 # H2  
212  53   3 -1.358200  17.155608       19.090889       34.876900 # M1  
213  54   1  0.000000  25.315625       14.436029       17.842245 # O1  
214  54   2  0.679100  24.580059       14.790493       18.149457 # H1  
215  54   2  0.679100  25.824954       15.126161       17.682924 # H2  
216  54   3 -1.358200  25.282203       14.590346       17.864093 # M1  
217  55   1  0.000000  20.303271       21.978090       37.255966 # O1  
218  55   2  0.679100  19.812543       21.257863       37.295216 # H1  
219  55   2  0.679100  19.720809       22.625938       37.301926 # H2  
220  55   3 -1.358200  20.144729       21.967397       37.268554 # M1  
221  56   1  0.000000  37.523191       32.290094       31.621567 # O1  
222  56   2  0.679100  37.999825       31.725175       31.158135 # H1  
223  56   2  0.679100  37.945940       33.046498       31.520480 # H2  
224  56   3 -1.358200  37.656056       32.318382       31.538171 # M1  
225  57   1  0.000000  11.668611       31.961704       25.568808 # O1  
226  57   2  0.679100  11.794367       31.098591       25.551397 # H1  
227  57   2  0.679100  10.821819       32.041760       25.762759 # H2  
228  57   3 -1.358200  11.562092       31.846023       25.594888 # M1  
229  58   1  0.000000  14.629924       24.005684        7.432104 # O1  
230  58   2  0.679100  14.690801       24.611538        8.056858 # H1  
231  58   2  0.679100  13.858323       23.628905        7.586217 # H2  
232  58   3 -1.358200  14.524929       24.039525        7.547166 # M1  
233  59   1  0.000000  11.239705       24.571481        7.711791 # O1  
234  59   2  0.679100  11.546790       25.225933        8.200129 # H1  
235  59   2  0.679100  11.570847       23.859287        8.091537 # H2  
236  59   3 -1.358200  11.333990       24.562951        7.840033 # M1  
237  60   1  0.000000  16.562429       23.238548       17.977656 # O1  
238  60   2  0.679100  15.781995       23.410516       17.627753 # H1  
239  60   2  0.679100  16.966184       22.773295       17.359916 # H2  
240  60   3 -1.358200  16.506782       23.195222       17.834706 # M1  
241  61   1  0.000000  37.260432       36.258674        0.521653 # O1  
242  61   2  0.679100  36.860457       37.033954        0.515086 # H1  
243  61   2  0.679100  36.666440       35.724358        0.872026 # H2  
244  61   3 -1.358200  37.113594       36.294272        0.572444 # M1  
245  62   1  0.000000   3.054285       28.035713        2.485291 # O1
246  62   2  0.679100   3.814969       28.346530        2.192316 # H1
247  62   2  0.679100   3.084467       27.189215        2.276455 # H2
248  62   3 -1.358200   3.171119       27.956577        2.411158 # M1
249  63   1  0.000000   7.274845        7.348650        4.526732 # O1
250  63   2  0.679100   8.064089        6.983091        4.594140 # H1
251  63   2  0.679100   7.449447        8.198734        4.437550 # H2
252  63   3 -1.358200   7.417234        7.420229        4.523515 # M1
253  64   1  0.000000   4.924200       29.995023        0.555184 # O1
254  64   2  0.679100   4.188057       29.558138        0.386941 # H1
255  64   2  0.679100   4.659614       30.823340        0.625662 # H2
256  64   3 -1.358200   4.776363       30.052850        0.540741 # M1
257  65   1  0.000000  35.509820        5.789792       10.180985 # O1
258  65   2  0.679100  34.892621        5.210594       10.392355 # H1  
259  65   2  0.679100  35.115931        6.559901       10.294410 # H2
260  65   3 -1.358200  35.360452        5.817996       10.228967 # M1  
261  66   1  0.000000  14.688246       20.949482       16.760130 # O1  
262  66   2  0.679100  14.882040       20.113653       16.917974 # H1  
263  66   2  0.679100  15.468950       21.325648       16.659718 # H2  
264  66   3 -1.358200  14.832208       20.881576       16.768614 # M1  
265  67   1  0.000000  28.602608        8.959787        9.986702 # O1  
266  67   2  0.679100  27.873622        8.758607        9.551745 # H1
267  67   2  0.679100  28.846690        9.720871        9.637049 # H2
268  67   3 -1.358200  28.530973        9.042502        9.870791 # M1  
269  68   1  0.000000  22.273405       34.268749        5.078649 # O1  
270  68   2  0.679100  21.980927       35.084829        5.176377 # H1  
271  68   2  0.679100  21.771899       33.945961        4.441953 # H2  
272  68   3 -1.358200  22.156110       34.341623        4.999027 # M1  
273  69   1  0.000000  25.250076       27.990573       16.340640 # O1  
274  69   2  0.679100  24.837926       27.354905       15.908042 # H1  
275  69   2  0.679100  25.028290       28.712786       15.904405 # H2  
276  69   3 -1.358200  25.156425       28.003358       16.212288 # M1  
277  70   1  0.000000  11.769638       24.309152       30.093517 # O1  
278  70   2  0.679100  12.111185       23.511270       30.005140 # H1  
279  70   2  0.679100  10.909097       24.166081       30.084495 # H2  
280  70   3 -1.358200  11.692967       24.170146       30.079128 # M1  
281  71   1  0.000000  13.304116        4.886650       12.314289 # O1  
282  71   2  0.679100  12.779539        4.983542       13.004587 # H1  
283  71   2  0.679100  13.049879        4.127156       11.968436 # H2  
284  71   3 -1.358200  13.189062        4.788764       12.365174 # M1  
285  72   1  0.000000  25.747995       10.852980       21.396653 # O1  
286  72   2  0.679100  25.661810       10.001894       21.225463 # H1  
287  72   2  0.679100  25.133924       11.225106       20.901153 # H2  
288  72   3 -1.358200  25.644546       10.782223       21.298163 # M1  
289  73   1  0.000000   1.870869       21.579050       17.210010 # O1  
290  73   2  0.679100   1.179247       22.099072       17.321002 # H1  
291  73   2  0.679100   2.468646       21.914798       17.749470 # H2  
292  73   3 -1.358200   1.857005       21.705472       17.306101 # M1  
293  74   1  0.000000  32.347606       21.102189       28.062258 # O1  
294  74   2  0.679100  31.539587       21.276564       27.783366 # H1  
295  74   2  0.679100  32.540664       20.346227       27.671961 # H2  
296  74   3 -1.358200  32.256758       21.016272       27.963399 # M1  
297  75   1  0.000000  11.060303       27.019174        4.836029 # O1  
298  75   2  0.679100  11.733013       26.639875        5.241832 # H1  
299  75   2  0.679100  10.823679       26.430596        4.237140 # H2  
300  75   3 -1.358200  11.124726       26.876190        4.807504 # M1  
301  76   1  0.000000   7.167054       34.979725       24.417953 # O1  
302  76   2  0.679100   7.614071       35.569118       24.880419 # H1  
303  76   2  0.679100   6.625380       34.627135       25.003915 # H2  
304  76   3 -1.358200   7.153071       35.014708       24.572837 # M1  
305  77   1  0.000000  31.988245       16.304217        0.492947 # O1  
306  77   2  0.679100  32.776376       16.111101        0.172576 # H1  
307  77   2  0.679100  32.092531       17.103684        0.826201 # H2  
308  77   3 -1.358200  32.120081       16.393793        0.494850 # M1  
309  78   1  0.000000  24.979990        9.192024       33.032622 # O1  
310  78   2  0.679100  25.614457        9.750163       33.249452 # H1  
311  78   2  0.679100  24.863592        8.721823       33.758187 # H2  
312  78   3 -1.358200  25.056524        9.205015       33.171842 # M1  
313  79   1  0.000000   8.313656       18.997900        9.155678 # O1
314  79   2  0.679100   7.755913       19.555754        9.528242 # H1
315  79   2  0.679100   8.851763       18.780161        9.806917 # H2
316  79   3 -1.358200   8.310755       19.048145        9.306924 # M1
317  80   1  0.000000  15.170336        4.531131        8.226416 # O1
318  80   2  0.679100  15.162368        5.385208        8.048733 # H1
319  80   2  0.679100  14.682929        4.184872        7.591104 # H2
320  80   3 -1.358200  15.097155        4.606151        8.106313 # M1
321  81   1  0.000000   5.970101       14.739623       24.796743 # O1  
322  81   2  0.679100   6.277208       15.327637       24.230169 # H1  
323  81   2  0.679100   5.105332       14.847080       24.755395 # H2  
324  81   3 -1.358200   5.887717       14.842364       24.706935 # M1  
325  82   1  0.000000  33.458535       21.567572       14.184537 # O1  
326  82   2  0.679100  33.830745       21.907505       13.472507 # H1  
327  82   2  0.679100  34.128406       21.213663       14.617091 # H2  
328  82   3 -1.358200  33.612481       21.565507       14.143250 # M1  
329  83   1  0.000000   0.531491       29.583690       33.269481 # O1  
330  83   2  0.679100  -0.008162       28.905036       33.173127 # H1  
331  83   2  0.679100  -0.003612       30.245852       33.459977 # H2  
332  83   3 -1.358200   0.372718       29.581254       33.283389 # M1  
333  84   1  0.000000  30.710929        3.961226       18.147210 # O1  
334  84   2  0.679100  30.471623        4.671908       17.701402 # H1  
335  84   2  0.679100  31.546431        3.849672       17.922322 # H2  
336  84   3 -1.358200  30.799005        4.049735       18.048128 # M1  
337  85   1  0.000000   6.165426        8.583823        6.178197 # O1
338  85   2  0.679100   6.120012        7.734655        6.372961 # H1
339  85   2  0.679100   5.334597        8.847392        6.214752 # H2
340  85   3 -1.358200   6.035979        8.497313        6.212370 # M1
341  86   1  0.000000  25.730337       12.787803       10.836169 # O1  
342  86   2  0.679100  26.488005       12.379310       10.978137 # H1  
343  86   2  0.679100  25.225996       12.519632       11.495567 # H2  
344  86   3 -1.358200  25.767761       12.687840       10.954554 # M1  
345  87   1  0.000000   3.089628       30.393493       30.417477 # O1  
346  87   2  0.679100   3.129799       29.536784       30.257730 # H1  
347  87   2  0.679100   3.038793       30.748313       29.622116 # H2  
348  87   3 -1.358200   3.088052       30.319349       30.276379 # M1  
349  88   1  0.000000   0.705144        2.425647       13.400865 # O1  
350  88   2  0.679100   0.000092        1.913022       13.435502 # H1
351  88   2  0.679100   0.377059        3.213887       13.221641 # H2
352  88   3 -1.358200   0.552519        2.466364       13.379505 # M1
353  89   1  0.000000   2.009919        7.514097       31.477025 # O1
354  89   2  0.679100   2.875474        7.473762       31.578359 # H1
355  89   2  0.679100   1.787602        6.693092       31.283098 # H2
356  89   3 -1.358200   2.104944        7.386852       31.463346 # M1
357  90   1  0.000000   4.974128        2.368009       25.519506 # O1
358  90   2  0.679100   5.835493        2.490160       25.454602 # H1
359  90   2  0.679100   4.886577        1.500789       25.482819 # H2
360  90   3 -1.358200   5.088443        2.257940       25.504498 # M1
361  91   1  0.000000  20.501247       33.112218       33.453456 # O1  
362  91   2  0.679100  21.217529       33.410022       33.054290 # H1  
363  91   2  0.679100  20.587701       33.400757       34.272207 # H2  
364  91   3 -1.358200  20.619835       33.198838       33.515441 # M1  
365  92   1  0.000000  35.330765       12.763470       28.101145 # O1  
366  92   2  0.679100  34.463659       12.673878       28.135520 # H1  
367  92   2  0.679100  35.619718       11.942327       28.043587 # H2  
368  92   3 -1.358200  35.245355       12.628927       28.097721 # M1  
369  93   1  0.000000  32.132149        4.497755       22.962530 # O1  
370  93   2  0.679100  32.308255        4.479172       23.816768 # H1  
371  93   2  0.679100  31.520023        5.115413       22.892659 # H2  
372  93   3 -1.358200  32.067736        4.586256       23.078404 # M1  
373  94   1  0.000000  21.680912        1.816426       22.362308 # O1  
374  94   2  0.679100  22.367045        2.064489       21.884010 # H1  
375  94   2  0.679100  21.668858        0.949077       22.269345 # H2  
376  94   3 -1.358200  21.780494        1.724939       22.277916 # M1  
377  95   1  0.000000   5.472216       26.355372        2.827337 # O1
378  95   2  0.679100   5.664608       25.518939        2.670982 # H1
379  95   2  0.679100   5.258342       26.667109        2.041106 # H2
380  95   3 -1.358200   5.469042       26.277859        2.688089 # M1
381  96   1  0.000000  16.594024       38.006824        0.621290 # O1
382  96   2  0.679100  17.039899       37.591430       -0.002990 # H1
383  96   2  0.679100  16.147433       37.368407        1.013798 # H2
384  96   3 -1.358200  16.593918       37.851145        0.587050 # M1
385  97   1  0.000000  37.851737       35.044644       22.828714 # O1  
386  97   2  0.679100  38.011690       34.957975       23.681935 # H1  
387  97   2  0.679100  37.599840       34.245739       22.585035 # H2  
388  97   3 -1.358200  37.838154       34.913819       22.918762 # M1  
389  98   1  0.000000   5.268560        6.863468       24.980685 # O1  
390  98   2  0.679100   4.624601        6.894997       25.568396 # H1  
391  98   2  0.679100   4.898115        6.478662       24.290920 # H2  
392  98   3 -1.358200   5.118702        6.811278       24.965609 # M1  
393  99   1  0.000000  35.352567       20.044846       16.027912 # O1  
394  99   2  0.679100  35.980679       19.466570       15.848596 # H1  
395  99   2  0.679100  35.250714       19.975876       16.891596 # H2  
396  99   3 -1.358200  35.430311       19.949229       16.129013 # M1  
397  100  1  0.000000  15.054101       32.908427       33.783903 # O1  
398  100  2  0.679100  15.870882       33.198586       33.685119 # H1  
399  100  2  0.679100  14.571499       33.633548       33.735158 # H2  
400  100  3 -1.358200  15.103469       33.058414       33.762108 # M1  
401  101  1  0.000000  24.558295       37.524605       21.723231 # O1  
402  101  2  0.679100  24.175696       36.777463       21.485578 # H1  
403  101  2  0.679100  24.512674       38.016267       21.004018 # H2  