LAMMPS data file for the TIP4P/2005f water model (explicit)

 8000 atoms
 0 bonds
 0 angles
 0 dihedrals
 0 impropers

 3 atom types
 0 bond types
 0 angle types
 0 dihedral types
 0 improper types

0.000000 39.165184 xlo xhi
0.000000 39.165184 ylo yhi
0.000000 39.165184 zlo zhi

Masses

  1   15.999000  # O
  2    1.008000  # H
  3    1.e-16 # M

# Pair Coeffs
#
# 1  O1
# 2  H1 H2
# 3  M1

# Bond Coeffs
#
# 1    500.000000   0.941900   # O-H
# 2    500.000000   0.155550   # O-M

# Angle Coeffs
#
# 1  H1-M1-H2
# 2  H1-M1-O1
# 3  50.000000  107.400000    H1-O1-H2
# 4  H1-O1-M1
# 5  H2-M1-O1
# 6  H2-O1-M1
# 7  M1-H1-O1
# 8  M1-H2-O1

 Atoms # full

1    1    1  0.000000  24.738902       14.745620       36.510906 # O1  
2    1    2  0.556400  25.492035       14.701820       35.906918 # H1  
3    1    2  0.556400  24.913480       15.516151       37.067442 # H2  
4    1    3 -1.112800  24.861255       14.841466       36.504648 # M1  
5    2    1  0.000000  37.291390        8.428576       23.351977 # O1  
6    2    2  0.556400  36.476374        8.942773       23.279332 # H1  
7    2    2  0.556400  38.000924        9.083108       23.306375 # H2  
8    2    3 -1.112800  37.277478        8.582716       23.336382 # M1  
9    3    1  0.000000   2.937139       34.175906        9.359455 # O1
10   3    2  0.556400   3.891680       34.326835        9.360354 # H1
11   3    2  0.556400   2.839393       33.214463        9.360952 # H2
12   3    3 -1.112800   3.050139       34.069010        9.359771 # M1
13   4    1  0.000000   5.240163       36.759400        9.101219 # O1
14   4    2  0.556400   5.704545       35.995245        9.467750 # H1
15   4    2  0.556400   4.366098       36.424752        8.860491 # H2
16   4    3 -1.112800   5.186131       36.614483        9.117811 # M1
17   5    1  0.000000  30.833580       35.630936       17.708726 # O1  
18   5    2  0.556400  30.659479       36.577869       17.625452 # H1  
19   5    2  0.556400  31.787071       35.567128       17.852643 # H2  
20   5    3 -1.112800  30.936371       35.747408       17.716724 # M1  
21   6    1  0.000000  10.125372        0.547210       26.903540 # O1  
22   6    2  0.556400  11.060834        0.636148       27.129217 # H1  
23   6    2  0.556400   9.881706        1.400508       26.520867 # H2  
24   6    3 -1.112800  10.216611        0.671478       26.882834 # M1  
25   7    1  0.000000  17.568654        1.466303       21.581744 # O1  
26   7    2  0.556400  16.700380        1.442263       21.158128 # H1  
27   7    2  0.556400  17.809750        0.538353       21.703034 # H2  
28   7    3 -1.112800  17.485938        1.340748       21.541871 # M1  
29   8    1  0.000000  29.106710       31.248588       18.936465 # O1  
30   8    2  0.556400  30.060103       31.401380       18.976791 # H1  
31   8    2  0.556400  28.758766       31.993418       18.428437 # H2  
32   8    3 -1.112800  29.186561       31.366973       18.874781 # M1  
33   9    1  0.000000   7.394183       22.388141       18.596882 # O1  
34   9    2  0.556400   8.206084       21.902148       18.400524 # H1  
35   9    2  0.556400   7.662018       23.316369       18.621088 # H2  
36   9    3 -1.112800   7.536586       22.446466       18.574177 # M1  
37   10   1  0.000000  35.087575       27.937319       34.549098 # O1  
38   10   2  0.556400  35.502686       27.196489       35.010382 # H1  
39   10   2  0.556400  35.823151       28.502245       34.277592 # H2  
40   10   3 -1.112800  35.239336       27.914119       34.574127 # M1  
41   11   1  0.000000   5.968388        4.000428       30.499008 # O1
42   11   2  0.556400   6.526498        3.461059       31.074788 # H1
43   11   2  0.556400   5.210572        3.437516       30.292189 # H2
44   11   3 -1.112800   5.942049        3.855052       30.547669 # M1
45   12   1  0.000000  11.389588       17.598373       30.365361 # O1  
46   12   2  0.556400  12.354715       17.647221       30.356890 # H1  
47   12   2  0.556400  11.105008       18.415132       30.796462 # H2  
48   12   3 -1.112800  11.479343       17.712535       30.421101 # M1  
49   13   1  0.000000  15.572734       25.255439       19.230052 # O1  
50   13   2  0.556400  16.456721       25.458525       19.563596 # H1  
51   13   2  0.556400  15.368247       25.975497       18.618799 # H2  
52   13   3 -1.112800  15.662351       25.377190       19.193426 # M1  
53   14   1  0.000000  29.219380       10.846723       13.796051 # O1  
54   14   2  0.556400  28.754875       10.290913       14.435769 # H1  
55   14   2  0.556400  28.656067       11.624824       13.690387 # H2  
56   14   3 -1.112800  29.083825       10.876040       13.866486 # M1  
57   15   1  0.000000  21.932034       10.619101       11.153632 # O1  
58   15   2  0.556400  21.962979       10.104490       11.971034 # H1  
59   15   2  0.556400  22.048094        9.968856       10.448196 # H2  
60   15   3 -1.112800  21.951422       10.465472       11.168399 # M1  
61   16   1  0.000000  19.671618       23.439240        3.806008 # O1  
62   16   2  0.556400  19.021366       22.912570        4.289452 # H1  
63   16   2  0.556400  19.179846       23.820225        3.066454 # H2  
64   16   3 -1.112800  19.521001       23.420026        3.772230 # M1  
65   17   1  0.000000  30.156930        6.135419       36.515800 # O1  
66   17   2  0.556400  30.635482        5.451532       36.028754 # H1  
67   17   2  0.556400  30.294010        5.916712       37.447092 # H2  
68   17   3 -1.112800  30.238123        6.016379       36.574390 # M1  
69   18   1  0.000000  32.072898       20.015017       32.084409 # O1  
70   18   2  0.556400  32.670938       19.257042       32.042559 # H1  
71   18   2  0.556400  31.262490       19.668271       32.480558 # H2  
72   18   3 -1.112800  32.044890       19.869319       32.131136 # M1  
73   19   1  0.000000  15.148024       28.917838        3.596096 # O1  
74   19   2  0.556400  15.197238       28.139945        3.024792 # H1  
75   19   2  0.556400  14.776566       29.612218        3.035932 # H2  
76   19   3 -1.112800  15.105524       28.906824        3.446871 # M1  
77   20   1  0.000000  32.251591        8.085157        7.570631 # O1
78   20   2  0.556400  31.872239        7.196368        7.562074 # H1
79   20   2  0.556400  31.546108        8.651237        7.910890 # H2
80   20   3 -1.112800  32.108516        8.042596        7.614378 # M1
81   21   1  0.000000   0.455093       30.762290       29.984460 # O1  
82   21   2  0.556400   0.819026       30.756597       29.089223 # H1  
83   21   2  0.556400   0.471293       29.837115       30.263239 # H2  
84   21   3 -1.112800   0.505227       30.639521       29.903157 # M1  
85   22   1  0.000000   2.099349       18.843662        0.118699 # O1
86   22   2  0.556400   1.709962       17.998897        0.380766 # H1
87   22   2  0.556400   1.363495       19.469922        0.134343 # H2
88   22   3 -1.112800   1.950945       18.814844        0.155325 # M1
89   23   1  0.000000   4.617898       36.598402       18.511424 # O1  
90   23   2  0.556400   4.107759       35.810431       18.741178 # H1  
91   23   2  0.556400   5.516174       36.275451       18.360650 # H2  
92   23   3 -1.112800   4.669088       36.451886       18.521840 # M1  
93   24   1  0.000000  31.674512        2.376186       30.789953 # O1  
94   24   2  0.556400  31.807237        1.633084       30.186536 # H1  
95   24   2  0.556400  32.331821        2.248567       31.486794 # H2  
96   24   3 -1.112800  31.778707        2.261350       30.802274 # M1  
97   25   1  0.000000  10.726602       14.083022        4.771383 # O1  
98   25   2  0.556400  10.630648       14.928038        5.230369 # H1  
99   25   2  0.556400  11.498389       13.667485        5.178326 # H2  
100  25   3 -1.112800  10.815735       14.139664        4.885587 # M1  
101  26   1  0.000000  15.342388       13.410317        8.168129 # O1  
102  26   2  0.556400  14.434908       13.741753        8.144490 # H1  
103  26   2  0.556400  15.252791       12.451177        8.245270 # H2  
104  26   3 -1.112800  15.210887       13.327531        8.175186 # M1  
105  27   1  0.000000  14.280625       16.116547        4.422971 # O1  
106  27   2  0.556400  14.080920       15.178187        4.306660 # H1  
107  27   2  0.556400  15.241799       16.154544        4.515861 # H2  
108  27   3 -1.112800  14.381053       15.997801        4.419882 # M1  
109  28   1  0.000000  26.283400        7.417259       18.520624 # O1  
110  28   2  0.556400  26.589847        8.331829       18.580464 # H1  
111  28   2  0.556400  26.962721        6.962691       18.005049 # H2  
112  28   3 -1.112800  26.413410        7.477928       18.460519 # M1  
113  29   1  0.000000   4.770738       23.975963       32.305661 # O1  
114  29   2  0.556400   5.428691       24.664544       32.141703 # H1  
115  29   2  0.556400   3.924057       24.441695       32.318034 # H2  
116  29   3 -1.112800   4.745847       24.128201       32.285669 # M1  
117  30   1  0.000000   2.213053        2.267330       35.670478 # O1
118  30   2  0.556400   1.830907        3.049393       35.250631 # H1
119  30   2  0.556400   3.082565        2.553621       35.980179 # H2
120  30   3 -1.112800   2.277330        2.408232       35.655951 # M1
121  31   1  0.000000  10.611729       11.684571        0.633743 # O1  
122  31   2  0.556400   9.878089       12.313592        0.639472 # H1
123  31   2  0.556400  11.407207       12.233337        0.633552 # H2  
124  31   3 -1.112800  10.619885       11.839905        0.634474 # M1  
125  32   1  0.000000  21.090192       13.717104       11.427101 # O1  
126  32   2  0.556400  20.562425       13.229596       10.780783 # H1  
127  32   2  0.556400  21.766998       14.166870       10.904062 # H2  
128  32   3 -1.112800  21.109848       13.712126       11.272879 # M1  
129  33   1  0.000000  29.379066       35.983059       29.012624 # O1  
130  33   2  0.556400  29.353149       35.981253       28.046574 # H1  
131  33   2  0.556400  29.714933       35.109100       29.252037 # H2  
132  33   3 -1.112800  29.419944       35.867557       28.916790 # M1  
133  34   1  0.000000   6.236261       32.715807       28.235106 # O1  
134  34   2  0.556400   5.453928       33.196656       28.536219 # H1  
135  34   2  0.556400   6.891884       33.401650       28.051516 # H2  
136  34   3 -1.112800   6.219549       32.869678       28.250606 # M1  
137  35   1  0.000000   8.692762       13.756917       20.312483 # O1  
138  35   2  0.556400   8.939169       12.823221       20.350202 # H1  
139  35   2  0.556400   7.757096       13.775070       20.553583 # H2  
140  35   3 -1.112800   8.601858       13.636169       20.349256 # M1  
141  36   1  0.000000  34.592255        5.872740       14.265396 # O1  
142  36   2  0.556400  34.990207        5.169869       13.734796 # H1  
143  36   2  0.556400  35.176058        6.633395       14.144954 # H2  
144  36   3 -1.112800  34.721736        5.880361       14.179532 # M1  
145  37   1  0.000000  35.367988        9.228061       18.022163 # O1  
146  37   2  0.556400  35.878742        8.411182       17.946214 # H1  
147  37   2  0.556400  34.479054        8.941078       18.269885 # H2  
148  37   3 -1.112800  35.318111        9.082476       18.044818 # M1  
149  38   1  0.000000  27.939194       26.821014       24.741210 # O1  
150  38   2  0.556400  27.445762       26.676486       25.559480 # H1  
151  38   2  0.556400  27.532286       26.224327       24.099088 # H2  
152  38   3 -1.112800  27.820451       26.723257       24.764441 # M1  
153  39   1  0.000000  23.294201        8.317903       35.191798 # O1  
154  39   2  0.556400  23.324957        9.241153       35.475683 # H1  
155  39   2  0.556400  23.783984        7.834688       35.870432 # H2  
156  39   3 -1.112800  23.362853        8.375937       35.318741 # M1  
157  40   1  0.000000  20.385176       21.560832       10.336284 # O1  
158  40   2  0.556400  19.723974       22.136832        9.930126 # H1  
159  40   2  0.556400  20.363827       20.750936        9.809461 # H2  
160  40   3 -1.112800  20.295157       21.529984       10.213236 # M1  
161  41   1  0.000000   0.841762        9.279884       29.588281 # O1
162  41   2  0.556400   0.274681       10.062362       29.596974 # H1  
163  41   2  0.556400   0.360187        8.620447       30.105153 # H2
164  41   3 -1.112800   0.703458        9.296112       29.657596 # M1
165  42   1  0.000000  14.184121       33.432318       25.948850 # O1  
166  42   2  0.556400  14.985611       33.870231       25.632978 # H1  
167  42   2  0.556400  14.276683       32.513357       25.664472 # H2  
168  42   3 -1.112800  14.302035       33.368874       25.869685 # M1  
169  43   1  0.000000  21.821912        1.306141       24.989775 # O1  
170  43   2  0.556400  22.476404        0.609222       25.130745 # H1  
171  43   2  0.556400  22.342091        2.108788       24.851571 # H2  
172  43   3 -1.112800  21.976835        1.320085       24.990140 # M1  
173  44   1  0.000000  19.496536       29.070284        7.155855 # O1  
174  44   2  0.556400  18.539927       29.003948        7.035747 # H1  
175  44   2  0.556400  19.669579       30.017376        7.239528 # H2  
176  44   3 -1.112800  19.393194       29.186444        7.151050 # M1  
177  45   1  0.000000  16.722965       17.416013       22.029787 # O1  
178  45   2  0.556400  17.233626       16.596356       22.066061 # H1  
179  45   2  0.556400  15.816013       17.150795       22.232335 # H2  
180  45   3 -1.112800  16.670699       17.272932       22.061285 # M1  
181  46   1  0.000000  30.861122       13.983335       23.992559 # O1  
182  46   2  0.556400  31.258021       13.110538       23.871625 # H1  
183  46   2  0.556400  31.611730       14.585489       24.081590 # H2  
184  46   3 -1.112800  31.012463       13.947641       23.988352 # M1  
185  47   1  0.000000  10.556843        1.967101        8.811346 # O1
186  47   2  0.556400   9.888813        1.577389        8.231873 # H1
187  47   2  0.556400  10.911066        2.714626        8.311686 # H2
188  47   3 -1.112800  10.515456        2.014292        8.669023 # M1
189  48   1  0.000000  24.778150       24.891982        5.351685 # O1  
190  48   2  0.556400  24.577436       25.777122        5.683603 # H1  
191  48   2  0.556400  24.255504       24.807281        4.543232 # H2  
192  48   3 -1.112800  24.682748       24.997549        5.288836 # M1  
193  49   1  0.000000  32.060401       26.720971       22.948357 # O1  
194  49   2  0.556400  31.902667       25.834106       22.598331 # H1  
195  49   2  0.556400  31.505021       27.300834       22.410546 # H2  
196  49   3 -1.112800  31.966351       26.680482       22.831263 # M1  
197  50   1  0.000000   1.345034        5.955822       10.680319 # O1
198  50   2  0.556400   2.040674        5.373041       10.348085 # H1
199  50   2  0.556400   0.530843        5.442502       10.593571 # H2
200  50   3 -1.112800   1.329399        5.811261       10.625061 # M1
201  51   1  0.000000  18.586657       12.840379        1.837744 # O1  
202  51   2  0.556400  18.124861       12.678017        2.670997 # H1  
203  51   2  0.556400  18.285756       12.136623        1.247732 # H2  
204  51   3 -1.112800  18.486068       12.726150        1.869824 # M1  
205  52   1  0.000000   7.824010        5.373009       15.013331 # O1
206  52   2  0.556400   7.069349        5.122373       14.464152 # H1
207  52   2  0.556400   8.048530        6.269219       14.729911 # H2
208  52   3 -1.112800   7.754092        5.458152       14.903523 # M1
209  53   1  0.000000  17.509728       18.757500       34.657607 # O1  
210  53   2  0.556400  16.773133       19.356883       34.836761 # H1  
211  53   2  0.556400  18.295579       19.238193       34.949673 # H2  
212  53   3 -1.112800  17.516224       18.899948       34.719755 # M1  
213  54   1  0.000000  25.393857       15.248538       17.692616 # O1  
214  54   2  0.556400  24.666021       14.808101       17.234143 # H1  
215  54   2  0.556400  26.188339       14.784230       17.397412 # H2  
216  54   3 -1.112800  25.402647       15.129214       17.593216 # M1  
217  55   1  0.000000  19.249754       22.810381       37.018565 # O1  
218  55   2  0.556400  19.632917       22.171598       37.634253 # H1  
219  55   2  0.556400  19.211730       22.345182       36.172354 # H2  
220  55   3 -1.112800  19.295274       22.664781       36.988162 # M1  
221  56   1  0.000000  37.573201       31.784778       31.041508 # O1  
222  56   2  0.556400  38.000109       32.507163       31.520921 # H1  
223  56   2  0.556400  36.901571       31.448212       31.649427 # H2  
224  56   3 -1.112800  37.540926       31.835662       31.184913 # M1  
225  57   1  0.000000  11.309001       31.520647       26.071881 # O1  
226  57   2  0.556400  12.227926       31.290800       25.880372 # H1  
227  57   2  0.556400  11.327093       32.466743       26.268104 # H2  
228  57   3 -1.112800  11.432581       31.615110       26.072502 # M1  
229  58   1  0.000000  13.681767       24.518182        7.367314 # O1  
230  58   2  0.556400  14.269376       25.283371        7.423259 # H1  
231  58   2  0.556400  13.885575       23.992707        8.152341 # H2  
232  58   3 -1.112800  13.786144       24.549797        7.478227 # M1  
233  59   1  0.000000  11.230272       24.146059        7.425469 # O1  
234  59   2  0.556400  11.006074       24.853643        8.044330 # H1  
235  59   2  0.556400  11.742522       23.514614        7.947777 # H2  
236  59   3 -1.112800  11.268263       24.156101        7.575974 # M1  
237  60   1  0.000000  16.407535       23.107857       17.877041 # O1  
238  60   2  0.556400  16.914146       23.907343       18.072220 # H1  
239  60   2  0.556400  15.905955       23.322240       17.079303 # H2  
240  60   3 -1.112800  16.408198       23.241573       17.797572 # M1  
241  61   1  0.000000  37.145421       36.601537        1.743539 # O1  
242  61   2  0.556400  37.560185       37.192670        1.101308 # H1  
243  61   2  0.556400  36.198005       36.773375        1.661070 # H2  
244  61   3 -1.112800  37.075172       36.702163        1.647961 # M1  
245  62   1  0.000000   3.523363       27.705760        2.316146 # O1
246  62   2  0.556400   3.154923       28.186942        1.563388 # H1
247  62   2  0.556400   4.404733       28.081700        2.441782 # H2
248  62   3 -1.112800   3.591012       27.818803        2.233437 # M1
249  63   1  0.000000   7.782959        7.799526        4.295897 # O1
250  63   2  0.556400   7.130229        7.086876        4.297257 # H1
251  63   2  0.556400   7.260547        8.612548        4.293011 # H2
252  63   3 -1.112800   7.627974        7.812763        4.295696 # M1
253  64   1  0.000000   4.558852       29.894709        0.863321 # O1
254  64   2  0.556400   4.515183       30.709743        0.345884 # H1
255  64   2  0.556400   5.409724       29.500023        0.630581 # H2
256  64   3 -1.112800   4.665311       29.950148        0.764383 # M1
257  65   1  0.000000  35.312405        5.774332        9.864351 # O1
258  65   2  0.556400  34.528207        5.258171       10.093569 # H1  
259  65   2  0.556400  34.995351        6.684051        9.788082 # H2
260  65   3 -1.112800  35.167164        5.826237        9.884523 # M1  
261  66   1  0.000000  15.043704       21.619917       15.966797 # O1  
262  66   2  0.556400  15.886513       21.245047       16.255023 # H1  
263  66   2  0.556400  14.385101       21.227631       16.555254 # H2  
264  66   3 -1.112800  15.067998       21.518740       16.082420 # M1  
265  67   1  0.000000  28.303533        8.475217       10.151979 # O1  
266  67   2  0.556400  28.172266        7.714252        9.570919 # H1
267  67   2  0.556400  28.139566        9.245002        9.591199 # H2
268  67   3 -1.112800  28.264596        8.476380       10.001385 # M1  
269  68   1  0.000000  22.336326       33.906009        4.624385 # O1  
270  68   2  0.556400  21.531266       33.373921        4.572529 # H1  
271  68   2  0.556400  22.045145       34.761186        4.967628 # H2  
272  68   3 -1.112800  22.191746       33.948620        4.662815 # M1  
273  69   1  0.000000  24.757154       27.780902       15.952127 # O1  
274  69   2  0.556400  25.509704       27.885323       16.549365 # H1  
275  69   2  0.556400  25.099625       27.262267       15.212086 # H2  
276  69   3 -1.112800  24.901573       27.726273       15.933293 # M1  
277  70   1  0.000000  11.544327       24.323887       30.246539 # O1  
278  70   2  0.556400  12.299255       24.892781       30.045611 # H1  
279  70   2  0.556400  11.857169       23.426939       30.068938 # H2  
280  70   3 -1.112800  11.685152       24.280621       30.196616 # M1  
281  71   1  0.000000  12.657361        4.713546       12.515769 # O1  
282  71   2  0.556400  13.450588        4.801811       11.970858 # H1  
283  71   2  0.556400  12.826700        5.267271       13.289489 # H2  
284  71   3 -1.112800  12.784311        4.798216       12.545946 # M1  
285  72   1  0.000000  25.768402       10.530945       21.046902 # O1  
286  72   2  0.556400  24.842686       10.329250       20.856384 # H1  
287  72   2  0.556400  26.125978        9.715988       21.423615 # H2  
288  72   3 -1.112800  25.693472       10.396863       21.071459 # M1  
289  73   1  0.000000   2.261893       21.457345       17.343620 # O1  
290  73   2  0.556400   2.740259       21.885580       18.065914 # H1  
291  73   2  0.556400   1.501930       22.030598       17.176988 # H2  
292  73   3 -1.112800   2.224754       21.589428       17.416904 # M1  
293  74   1  0.000000  32.579582       21.249671       28.241500 # O1  
294  74   2  0.556400  33.373073       21.649223       27.861161 # H1  
295  74   2  0.556400  32.702675       20.298178       28.125584 # H2  
296  74   3 -1.112800  32.700467       21.176878       28.176050 # M1  
297  75   1  0.000000  11.463911       27.037650        5.349993 # O1  
298  75   2  0.556400  11.850837       26.200359        5.061619 # H1  
299  75   2  0.556400  10.895863       27.312029        4.617897 # H2  
300  75   3 -1.112800  11.440024       26.963410        5.215407 # M1  
301  76   1  0.000000   7.613183       35.641098       24.945493 # O1  
302  76   2  0.556400   7.931327       35.211856       24.140220 # H1  
303  76   2  0.556400   7.224922       34.927307       25.468641 # H2  
304  76   3 -1.112800   7.603935       35.490347       24.908284 # M1  
305  77   1  0.000000  32.275219       16.265728        0.368954 # O1  
306  77   2  0.556400  32.652151       15.719726        1.071615 # H1  
307  77   2  0.556400  31.558621       15.732652       -0.000160 # H2  
308  77   3 -1.112800  32.230422       16.123412        0.412945 # M1  
309  78   1  0.000000  26.085710        9.616759       32.463944 # O1  
310  78   2  0.556400  25.553171        9.869082       33.229884 # H1  
311  78   2  0.556400  25.526722        9.006316       31.965126 # H2  
312  78   3 -1.112800  25.941752        9.569528       32.499174 # M1  
313  79   1  0.000000   7.847501       19.089716        9.184804 # O1
314  79   2  0.556400   8.725176       18.705162        9.059375 # H1
315  79   2  0.556400   7.450648       18.571492        9.897461 # H2
316  79   3 -1.112800   7.910915       18.970652        9.262251 # M1
317  80   1  0.000000  15.151520        4.257204        7.833635 # O1
318  80   2  0.556400  16.047596        4.598968        7.714583 # H1
319  80   2  0.556400  14.580922        5.034883        7.773953 # H2
320  80   3 -1.112800  15.194446        4.404843        7.810063 # M1
321  81   1  0.000000   5.529992       15.192078       24.406468 # O1  
322  81   2  0.556400   5.025289       14.728756       23.724899 # H1  
323  81   2  0.556400   5.656330       16.083951       24.056426 # H2  
324  81   3 -1.112800   5.480091       15.248598       24.270412 # M1  
325  82   1  0.000000  33.923687       20.918831       13.509357 # O1  
326  82   2  0.556400  33.900003       21.329582       14.383801 # H1  
327  82   2  0.556400  34.045727       21.654365       12.894520 # H2  
328  82   3 -1.112800  33.936658       21.070011       13.543595 # M1  
329  83   1  0.000000   0.584644       29.773118       33.303221 # O1  
330  83   2  0.556400  -0.004511       30.539153       33.307132 # H1  
331  83   2  0.556400  -0.005604       29.007920       33.306023 # H2  
332  83   3 -1.112800   0.429097       29.773229       33.304107 # M1  
333  84   1  0.000000  30.639546        3.945965       17.991567 # O1  
334  84   2  0.556400  31.498481        3.916742       17.549634 # H1  
335  84   2  0.556400  30.342314        4.860210       17.892888 # H2  
336  84   3 -1.112800  30.713627        4.062687       17.920267 # M1  
337  85   1  0.000000   5.187367        8.756806        6.032079 # O1
338  85   2  0.556400   6.126690        8.951787        6.148627 # H1
339  85   2  0.556400   5.121971        7.796628        6.119889 # H2
340  85   3 -1.112800   5.302626        8.655887        6.059031 # M1
341  86   1  0.000000  25.351557       12.053109       11.661081 # O1  
342  86   2  0.556400  25.724203       11.641337       12.451971 # H1  
343  86   2  0.556400  25.335691       12.998792       11.859475 # H2  
344  86   3 -1.112800  25.398611       12.123525       11.791554 # M1  
345  87   1  0.000000   3.428565       30.352371       30.089792 # O1  
346  87   2  0.556400   3.190612       29.544477       29.615857 # H1  
347  87   2  0.556400   2.613998       30.629130       30.530035 # H2  
348  87   3 -1.112800   3.289751       30.282321       30.085348 # M1  
349  88   1  0.000000   0.028621        2.138628       12.904737 # O1  
350  88   2  0.556400   0.001863        3.104543       12.889887 # H1
351  88   2  0.556400   0.934068        1.920858       13.162943 # H2
352  88   3 -1.112800   0.144508        2.237298       12.936833 # M1
353  89   1  0.000000   2.904640        6.306829       32.813905 # O1
354  89   2  0.556400   1.952128        6.234794       32.667411 # H1
355  89   2  0.556400   3.254351        5.432290       32.597541 # H2
356  89   3 -1.112800   2.825139        6.181988       32.766049 # M1
357  90   1  0.000000   5.319635        2.232463       25.765255 # O1
358  90   2  0.556400   4.823122        1.523083       25.336089 # H1
359  90   2  0.556400   5.614553        2.800284       25.041009 # H2
360  90   3 -1.112800   5.293048        2.213793       25.613135 # M1
361  91   1  0.000000  20.630054       33.185526       34.616706 # O1  
362  91   2  0.556400  20.235633       33.946018       34.169479 # H1  
363  91   2  0.556400  21.414794       32.972026       34.094662 # H2  
364  91   3 -1.112800  20.681532       33.257667       34.488872 # M1  
365  92   1  0.000000  35.144335       12.494453       28.028023 # O1  
366  92   2  0.556400  36.110169       12.516338       28.003220 # H1  
367  92   2  0.556400  34.925205       11.598596       28.316729 # H2  
368  92   3 -1.112800  35.242815       12.379187       28.062828 # M1  
369  93   1  0.000000  32.306432        4.523180       23.675327 # O1  
370  93   2  0.556400  31.370875        4.764605       23.655959 # H1  
371  93   2  0.556400  32.317844        3.603743       23.972705 # H2  
372  93   3 -1.112800  32.184550        4.433760       23.711993 # M1  
373  94   1  0.000000  21.594288        1.762179       21.944801 # O1  
374  94   2  0.556400  22.173623        2.531062       21.860433 # H1  
375  94   2  0.556400  22.194268        1.009017       22.026651 # H2  
376  94   3 -1.112800  21.749824        1.764252       21.944469 # M1  
377  95   1  0.000000   5.198489       25.889864        2.359942 # O1
378  95   2  0.556400   4.587177       25.893439        3.108416 # H1
379  95   2  0.556400   5.923828       26.468053        2.631067 # H2
380  95   3 -1.112800   5.213528       25.966591        2.494413 # M1
381  96   1  0.000000   4.908305        6.474765       25.174889 # O1
382  96   2  0.556400   5.411490        7.035883       25.779769 # H1
383  96   2  0.556400   4.115130        6.228503       25.669011 # H2
384  96   3 -1.112800   4.870059        6.516290       25.319832 # M1
385  97   1  0.000000  35.786445       19.729617       16.166340 # O1  
386  97   2  0.556400  35.039913       19.867958       15.568444 # H1  
387  97   2  0.556400  35.446179       19.141996       16.853980 # H2  
388  97   3 -1.112800  35.643111       19.670363       16.178176 # M1  
389  98   1  0.000000  14.997225       33.315810       33.682072 # O1  
390  98   2  0.556400  15.801253       33.315113       33.145913 # H1  
391  98   2  0.556400  15.297186       33.107581       34.576831 # H2  
392  98   3 -1.112800  15.142826       33.288255       33.729367 # M1  
393  99   1  0.000000  25.263407       37.439620       20.449465 # O1  
394  99   2  0.556400  26.044049       38.000748       20.547766 # H1  
395  99   2  0.556400  24.521698       38.000538       20.712461 # H2  
396  99   3 -1.112800  25.268542       37.587603       20.497115 # M1  
397  100  1  0.000000  33.976450       28.000572       24.260080 # O1  
398  100  2  0.556400  33.510385       28.409345       23.518719 # H1  
399  100  2  0.556400  33.354713       27.351097       24.614417 # H2  
400  100  3 -1.112800  33.832983       27.968826       24.209036 # M1  
401  101  1  0.000000   6.699792       18.881278       18.377529 # O1  
402  101  2  0.556400   7.656308       18.990713       18.293688 # H1  
403  101  2  0.556400   6.566722       17.927473       18.458002 # H2  