LAMMPS data file for original TIP4P water model (explicit)

 8000 atoms
 0 bonds
 0 angles
 0 dihedrals
 0 impropers

 3 atom types
 0 bond types
 0 angle types
 0 dihedral types
 0 improper types

0.000000 39.194089 xlo xhi
0.000000 39.194089 ylo yhi
0.000000 39.194089 zlo zhi

Masses

  1   15.999000  # O
  2    1.008000  # H
  3    1.e-16    # M

# Pair Coeffs
#
# 1  O1
# 2  H1 H2
# 3  M1

# Bond Coeffs
#
# 1    500.000000   0.957200   # O-H
# 2    500.000000   0.150000   # O-M

# Angle Coeffs
#
# 1  H1-M1-H2
# 2  H1-M1-O1
# 3  50.000000  104.520000    H1-O1-H2
# 4  H1-O1-M1
# 5  H2-M1-O1
# 6  H2-O1-M1
# 7  M1-H1-O1
# 8  M1-H2-O1

 Atoms # full

1    1    1  0.000000  24.733112       14.836666       36.499269 # O1  
2    1    2  0.520000  25.486917       14.868997       35.910232 # H1  
3    1    2  0.520000  24.865452       15.570928       37.098915 # H2  
4    1    3 -1.040000  24.846549       14.934799       36.500627 # M1  
5    2    1  0.000000  37.268081        8.404080       23.452227 # O1  
6    2    2  0.520000  36.492696        8.964658       23.424634 # H1  
7    2    2  0.520000  38.005753        9.013845       23.436147 # H2  
8    2    3 -1.040000  37.263254        8.553898       23.446636 # M1  
9    3    1  0.000000   2.953816       34.188734        9.324915 # O1
10   3    2  0.520000   3.900588       34.329539        9.319578 # H1
11   3    2  0.520000   2.852689       33.236932        9.316132 # H2
12   3    3 -1.040000   3.062069       34.084916        9.323108 # M1
13   4    1  0.000000   5.241099       36.759425        9.101381 # O1
14   4    2  0.520000   5.696883       35.999546        9.463425 # H1
15   4    2  0.520000   4.374906       36.428800        8.863415 # H2
16   4    3 -1.040000   5.188562       36.619827        9.117265 # M1
17   5    1  0.000000  30.904903       35.644468       17.688595 # O1  
18   5    2  0.520000  30.707585       36.577990       17.612225 # H1  
19   5    2  0.520000  31.852736       35.609278       17.817454 # H2  
20   5    3 -1.040000  31.000978       35.759465       17.695314 # M1  
21   6    1  0.000000  10.125213        0.578170       26.928103 # O1  
22   6    2  0.520000  11.057398        0.610689       27.143057 # H1  
23   6    2  0.520000   9.928120        1.448751       26.582453 # H2  
24   6    3 -1.040000  10.219314        0.693778       26.911372 # M1  
25   7    1  0.000000  17.607788        1.469336       21.544828 # O1  
26   7    2  0.520000  16.751317        1.418611       21.120427 # H1  
27   7    2  0.520000  17.866564        0.556730       21.672947 # H2  
28   7    3 -1.040000  17.531276        1.346018       21.506901 # M1  
29   8    1  0.000000  29.131580       31.226730       18.881422 # O1  
30   8    2  0.520000  30.070972       31.408555       18.908121 # H1  
31   8    2  0.520000  28.757161       31.967721       18.405005 # H2  
32   8    3 -1.040000  29.203903       31.344862       18.823853 # M1  
33   9    1  0.000000   7.429277       22.347473       18.735514 # O1  
34   9    2  0.520000   8.221966       21.870265       18.490263 # H1  
35   9    2  0.520000   7.700945       23.264829       18.765256 # H2  
36   9    3 -1.040000   7.565528       22.403817       18.707926 # M1  
37   10   1  0.000000  35.061146       27.927681       34.540802 # O1  
38   10   2  0.520000  35.461970       27.172542       34.971309 # H1  
39   10   2  0.520000  35.800116       28.484983       34.296736 # H2  
40   10   3 -1.040000  35.207053       27.902355       34.564668 # M1  
41   11   1  0.000000   5.713953        3.925119       30.466920 # O1
42   11   2  0.520000   6.323572        3.492125       31.064508 # H1
43   11   2  0.520000   5.044205        3.265189       30.287582 # H2
44   11   3 -1.040000   5.706256        3.785211       30.520461 # M1
45   12   1  0.000000  11.401053       17.714728       30.230705 # O1  
46   12   2  0.520000  12.347380       17.577197       30.188505 # H1  
47   12   2  0.520000  11.302062       18.586342       30.613749 # H2  
48   12   3 -1.040000  11.509522       17.808700       30.274337 # M1  
49   13   1  0.000000  15.558452       25.227086       19.176869 # O1  
50   13   2  0.520000  16.449843       25.361808       19.498588 # H1  
51   13   2  0.520000  15.394518       25.975834       18.603516 # H2  
52   13   3 -1.040000  15.651575       25.340181       19.144657 # M1  
53   14   1  0.000000  29.385787       10.863756       13.794418 # O1  
54   14   2  0.520000  28.843094       10.341008       14.384714 # H1  
55   14   2  0.520000  28.899362       11.680337       13.681206 # H2  
56   14   3 -1.040000  29.254048       10.901370       13.855491 # M1  
57   15   1  0.000000  21.919114       10.577464       11.147497 # O1  
58   15   2  0.520000  21.941351       10.064443       11.955300 # H1  
59   15   2  0.520000  22.045375        9.933479       10.450667 # H2  
60   15   3 -1.040000  21.938124       10.429353       11.161703 # M1  
61   16   1  0.000000  19.613872       23.565934        3.810396 # O1  
62   16   2  0.520000  18.945399       23.074348        4.287595 # H1  
63   16   2  0.520000  19.150292       23.932861        3.057608 # H2  
64   16   3 -1.040000  19.468955       23.549976        3.775117 # M1  
65   17   1  0.000000  30.157459        6.139033       36.503648 # O1  
66   17   2  0.520000  30.634535        5.473019       36.008617 # H1  
67   17   2  0.520000  30.297088        5.902434       37.420576 # H2  
68   17   3 -1.040000  30.236405        6.023488       36.557656 # M1  
69   18   1  0.000000  32.030534       20.012882       31.958620 # O1  
70   18   2  0.520000  32.626269       19.264937       31.914932 # H1  
71   18   2  0.520000  31.240694       19.666647       32.373957 # H2  
72   18   3 -1.040000  32.005687       19.872814       32.006196 # M1  
73   19   1  0.000000  15.157826       28.923420        3.589650 # O1  
74   19   2  0.520000  15.197516       28.161989        3.010964 # H1  
75   19   2  0.520000  14.791886       29.620143        3.044768 # H2  
76   19   3 -1.040000  15.116062       28.915137        3.445820 # M1  
77   20   1  0.000000  32.218789        7.903337        7.941051 # O1
78   20   2  0.520000  31.776959        7.054227        7.946454 # H1
79   20   2  0.520000  31.549795        8.523823        8.230319 # H2
80   20   3 -1.040000  32.076590        7.874070        7.978773 # M1
81   21   1  0.000000   0.428599       31.004296       29.936427 # O1  
82   21   2  0.520000   0.778340       30.951979       29.046947 # H1  
83   21   2  0.520000   0.419821       30.098082       30.244535 # H2  
84   21   3 -1.040000   0.472247       30.881592       29.862004 # M1  
85   22   1  0.000000   2.179968       18.864734        0.155427 # O1
86   22   2  0.520000   1.862671       18.007543        0.439640 # H1
87   22   2  0.520000   1.406716       19.428230        0.183429 # H2
88   22   3 -1.040000   2.040365       18.827137        0.195394 # M1
89   23   1  0.000000   4.175942       35.953809       18.288930 # O1  
90   23   2  0.520000   4.063511       35.086510       18.678009 # H1  
91   23   2  0.520000   5.062996       35.942408       17.929436 # H2  
92   23   3 -1.040000   4.275103       35.841324       18.292717 # M1  
93   24   1  0.000000  31.649817        2.285494       30.811138 # O1  
94   24   2  0.520000  31.814815        1.559595       30.209409 # H1  
95   24   2  0.520000  32.286777        2.163193       31.515095 # H2  
96   24   3 -1.040000  31.752477        2.176914       30.824225 # M1  
97   25   1  0.000000  10.929416       13.969900        4.838209 # O1  
98   25   2  0.520000  10.709626       14.770370        5.314834 # H1  
99   25   2  0.520000  11.681593       13.609713        5.308023 # H2  
100  25   3 -1.040000  10.997568       14.026262        4.959365 # M1  
101  26   1  0.000000  15.312445       13.386970        8.167604 # O1  
102  26   2  0.520000  14.415142       13.719622        8.147074 # H1  
103  26   2  0.520000  15.214787       12.437109        8.234367 # H2  
104  26   3 -1.040000  15.185078       13.307960        8.173522 # M1  
105  27   1  0.000000  14.286588       16.050971        4.486622 # O1  
106  27   2  0.520000  14.065012       15.122437        4.416191 # H1  
107  27   2  0.520000  15.242069       16.066168        4.541908 # H2  
108  27   3 -1.040000  14.380537       15.934053        4.484683 # M1  
109  28   1  0.000000  26.391639        7.674405       18.390329 # O1  
110  28   2  0.520000  26.872943        8.501776       18.384335 # H1  
111  28   2  0.520000  26.918672        7.086251       17.849458 # H2  
112  28   3 -1.040000  26.520718        7.705028       18.320324 # M1  
113  29   1  0.000000   4.755539       24.011756       32.274068 # O1  
114  29   2  0.520000   5.548526       24.532555       32.146901 # H1  
115  29   2  0.520000   4.044283       24.652314       32.268571 # H2  
116  29   3 -1.040000   4.766002       24.160423       32.257085 # M1  
117  30   1  0.000000   2.092745        2.556099       35.529695 # O1
118  30   2  0.520000   1.894513        3.404372       35.132998 # H1
119  30   2  0.520000   2.978128        2.655802       35.879534 # H2
120  30   3 -1.040000   2.180708        2.677452       35.523696 # M1
121  31   1  0.000000  10.631100       11.637803        0.611252 # O1  
122  31   2  0.520000   9.867340       12.214728        0.603619 # H1
123  31   2  0.520000  11.381116       12.232537        0.611236 # H2  
124  31   3 -1.040000  10.629341       11.787790        0.610273 # M1  
125  32   1  0.000000  21.139078       13.782494       11.552804 # O1  
126  32   2  0.520000  20.614940       13.287030       10.923499 # H1  
127  32   2  0.520000  21.795457       14.229997       11.018820 # H2  
128  32   3 -1.040000  21.156007       13.776354       11.403889 # M1  
129  33   1  0.000000  29.359965       36.103948       29.133710 # O1  
130  33   2  0.520000  29.375632       36.006634       28.181599 # H1  
131  33   2  0.520000  29.750852       35.295067       29.464087 # H2  
132  33   3 -1.040000  29.412009       35.987944       29.054120 # M1  
133  34   1  0.000000   6.314946       32.671503       28.302168 # O1  
134  34   2  0.520000   5.490885       33.078835       28.569066 # H1  
135  34   2  0.520000   6.907420       33.407294       28.147834 # H2  
136  34   3 -1.040000   6.285300       32.817837       28.316577 # M1  
137  35   1  0.000000   8.594411       14.160389       20.315188 # O1  
138  35   2  0.520000   8.329344       13.244960       20.404407 # H1  
139  35   2  0.520000   7.793195       14.658953       20.475557 # H2  
140  35   3 -1.040000   8.457914       14.107026       20.347138 # M1  
141  36   1  0.000000  34.587095        5.842742       14.319022 # O1  
142  36   2  0.520000  35.037322        5.214189       13.754711 # H1  
143  36   2  0.520000  35.101999        6.645989       14.242212 # H2  
144  36   3 -1.040000  34.710644        5.865105       14.236951 # M1  
145  37   1  0.000000  35.392526        9.228695       17.974865 # O1  
146  37   2  0.520000  35.913194        8.433116       17.864451 # H1  
147  37   2  0.520000  34.550698        8.919999       18.309923 # H2  
148  37   3 -1.040000  35.351414        9.087334       18.003622 # M1  
149  38   1  0.000000  27.926022       26.864713       24.648646 # O1  
150  38   2  0.520000  27.446962       26.869245       25.477327 # H1  
151  38   2  0.520000  27.491990       26.191801       24.124207 # H2  
152  38   3 -1.040000  27.809135       26.779152       24.687593 # M1  
153  39   1  0.000000  23.348239        8.268240       35.233640 # O1  
154  39   2  0.520000  23.190144        9.199463       35.388757 # H1  
155  39   2  0.520000  23.879564        7.987646       35.978753 # H2  
156  39   3 -1.040000  23.396017        8.351528       35.348880 # M1  
157  40   1  0.000000  20.413364       21.627038       10.400655 # O1  
158  40   2  0.520000  19.737136       22.151618        9.971980 # H1  
159  40   2  0.520000  20.437038       20.811113        9.900718 # H2  
160  40   3 -1.040000  20.329830       21.589743       10.281782 # M1  
161  41   1  0.000000   0.858573        9.281862       29.580855 # O1
162  41   2  0.520000   0.322678       10.074986       29.581909 # H1  
163  41   2  0.520000   0.351530        8.648956       30.089351 # H2
164  41   3 -1.040000   0.725065        9.302372       29.646084 # M1
165  42   1  0.000000  14.128862       33.359967       26.130123 # O1  
166  42   2  0.520000  14.828681       33.889659       25.748140 # H1  
167  42   2  0.520000  14.251264       32.490202       25.749654 # H2  
168  42   3 -1.040000  14.234116       33.316434       26.032520 # M1  
169  43   1  0.000000  21.850962        1.263127       24.949780 # O1  
170  43   2  0.520000  22.450494        0.539694       25.132638 # H1  
171  43   2  0.520000  22.422836        2.011913       24.780929 # H2  
172  43   3 -1.040000  22.000916        1.266372       24.951573 # M1  
173  44   1  0.000000  19.491159       29.099637        7.157897 # O1  
174  44   2  0.520000  18.543241       29.049635        7.034687 # H1  
175  44   2  0.520000  19.672870       30.035426        7.244558 # H2  
176  44   3 -1.040000  19.393075       29.213028        7.153218 # M1  
177  45   1  0.000000  16.755836       17.439120       22.097263 # O1  
178  45   2  0.520000  17.436392       16.766072       22.106252 # H1  
179  45   2  0.520000  15.946685       16.964801       22.288382 # H2  
180  45   3 -1.040000  16.739374       17.292243       22.122879 # M1  
181  46   1  0.000000  30.860688       14.103898       24.010313 # O1  
182  46   2  0.520000  31.204178       13.225933       23.844716 # H1  
183  46   2  0.520000  31.639387       14.648246       24.126695 # H2  
184  46   3 -1.040000  31.004341       14.061191       24.004013 # M1  
185  47   1  0.000000  10.490206        2.016865        8.631186 # O1
186  47   2  0.520000   9.796997        1.747267        8.028684 # H1
187  47   2  0.520000  10.900339        2.768919        8.204060 # H2
188  47   3 -1.040000  10.453969        2.078625        8.499381 # M1
189  48   1  0.000000  25.068751       25.055182        5.385129 # O1  
190  48   2  0.520000  24.713173       25.934980        5.510633 # H1  
191  48   2  0.520000  24.559559       24.691625        4.660712 # H2  
192  48   3 -1.040000  24.958050       25.121267        5.308461 # M1  
193  49   1  0.000000  32.017531       26.822055       22.884003 # O1  
194  49   2  0.520000  31.939185       25.917905       22.579692 # H1  
195  49   2  0.520000  31.406844       27.313833       22.334961 # H2  
196  49   3 -1.040000  31.929327       26.769267       22.774763 # M1  
197  50   1  0.000000   1.360564        5.887667       10.418471 # O1
198  50   2  0.520000   2.140053        5.424310       10.111994 # H1
199  50   2  0.520000   0.646771        5.261017       10.299977 # H2
200  50   3 -1.040000   1.368974        5.748133       10.364069 # M1
201  51   1  0.000000  18.575995       12.971591        1.856807 # O1  
202  51   2  0.520000  18.095299       12.756267        2.656056 # H1  
203  51   2  0.520000  18.347248       12.273076        1.243632 # H2  
204  51   3 -1.040000  18.485178       12.854608        1.880627 # M1  
205  52   1  0.000000   7.772855        5.636610       15.038110 # O1
206  52   2  0.520000   7.235266        4.905683       14.733193 # H1
207  52   2  0.520000   7.519940        6.370528       14.478084 # H2
208  52   3 -1.040000   7.671661        5.636993       14.927387 # M1
209  53   1  0.000000  17.568435       18.750146       34.672223 # O1  
210  53   2  0.520000  16.862820       19.365759       34.870613 # H1  
211  53   2  0.520000  18.360874       19.182855       34.990084 # H2  
212  53   3 -1.040000  17.579550       18.884344       34.738309 # M1  
213  54   1  0.000000  25.330135       15.272269       17.645552 # O1  
214  54   2  0.520000  24.668165       14.779051       17.161030 # H1  
215  54   2  0.520000  26.162427       14.879535       17.382339 # H2  
216  54   3 -1.040000  25.351938       15.158857       17.549833 # M1  
217  55   1  0.000000  19.272246       22.796394       36.999093 # O1  
218  55   2  0.520000  19.637206       22.171325       37.625450 # H1  
219  55   2  0.520000  19.263103       22.324245       36.166493 # H2  
220  55   3 -1.040000  19.317795       22.655937       36.972691 # M1  
221  56   1  0.000000  37.574110       31.835907       31.049551 # O1  
222  56   2  0.520000  38.000498       32.575092       31.483176 # H1  
223  56   2  0.520000  36.952015       31.504178       31.696996 # H2  
224  56   3 -1.040000  37.549057       31.888067       31.187941 # M1  
225  57   1  0.000000  11.390961       31.525030       25.939249 # O1  
226  57   2  0.520000  12.301525       31.289458       25.761456 # H1  
227  57   2  0.520000  11.417280       32.464350       26.121504 # H2  
228  57   3 -1.040000  11.510893       31.615118       25.939820 # M1  
229  58   1  0.000000  13.684390       24.493151        7.512689 # O1  
230  58   2  0.520000  14.268781       25.247749        7.585494 # H1  
231  58   2  0.520000  13.893729       23.953084        8.274749 # H2  
232  58   3 -1.040000  13.785997       24.520614        7.619561 # M1  
233  59   1  0.000000  11.231902       24.173798        7.492158 # O1  
234  59   2  0.520000  11.013445       24.867821        8.114122 # H1  
235  59   2  0.520000  11.748753       23.549314        8.001192 # H2  
236  59   3 -1.040000  11.270100       24.182700        7.636940 # M1  
237  60   1  0.000000  16.390914       23.043943       17.839346 # O1  
238  60   2  0.520000  16.949245       23.797738       18.029849 # H1  
239  60   2  0.520000  15.852279       23.325086       17.099709 # H2  
240  60   3 -1.040000  16.393435       23.176428       17.769050 # M1  
241  61   1  0.000000  37.141084       36.621951        1.716068 # O1  
242  61   2  0.520000  37.540115       37.211265        1.075979 # H1  
243  61   2  0.520000  36.200663       36.780945        1.635073 # H2  
244  61   3 -1.040000  37.071780       36.717744        1.623760 # M1  
245  62   1  0.000000   3.528278       27.688610        2.319413 # O1
246  62   2  0.520000   3.177378       28.182185        1.578141 # H1
247  62   2  0.520000   4.408508       28.042029        2.447951 # H2
248  62   3 -1.040000   3.596039       27.797036        2.240976 # M1
249  63   1  0.000000   7.974380        7.737591        4.219214 # O1
250  63   2  0.520000   7.446507        6.939955        4.182358 # H1
251  63   2  0.520000   7.334238        8.446183        4.285144 # H2
252  63   3 -1.040000   7.824860        7.726192        4.222936 # M1
253  64   1  0.000000   4.568033       29.900476        0.869338 # O1
254  64   2  0.520000   4.524042       30.706576        0.355044 # H1
255  64   2  0.520000   5.412255       29.513565        0.637347 # H2
256  64   3 -1.040000   4.670472       29.954137        0.773804 # M1
257  65   1  0.000000  35.197120        5.621331       10.205871 # O1
258  65   2  0.520000  34.383104        5.131465       10.322663 # H1  
259  65   2  0.520000  34.922684        6.537623       10.169482 # H2
260  65   3 -1.040000  35.057785        5.675919       10.216164 # M1  
261  66   1  0.000000  15.166505       21.446822       16.090355 # O1  
262  66   2  0.520000  16.052333       21.225752       16.377875 # H1  
263  66   2  0.520000  14.594080       21.029241       16.733928 # H2  
264  66   3 -1.040000  15.206625       21.365067       16.209546 # M1  
265  67   1  0.000000  28.249529        8.503932       10.221251 # O1  
266  67   2  0.520000  28.106972        7.738879        9.663934 # H1
267  67   2  0.520000  28.082657        9.252506        9.648519 # H2
268  67   3 -1.040000  28.209919        8.501823       10.076591 # M1  
269  68   1  0.000000  22.283123       33.931638        4.673188 # O1  
270  68   2  0.520000  21.496058       33.389238        4.622570 # H1  
271  68   2  0.520000  21.970645       34.778985        4.990351 # H2  
272  68   3 -1.040000  22.142368       33.970675        4.707309 # M1  
273  69   1  0.000000  24.687479       28.051179       15.751630 # O1  
274  69   2  0.520000  25.441000       28.038995       16.341790 # H1  
275  69   2  0.520000  24.958164       27.515847       15.005721 # H2  
276  69   3 -1.040000  24.818590       27.981090       15.731693 # M1  
277  70   1  0.000000  11.454120       24.443648       30.060131 # O1  
278  70   2  0.520000  12.269190       24.917712       29.895341 # H1  
279  70   2  0.520000  11.682725       23.522589       29.935147 # H2  
280  70   3 -1.040000  11.587723       24.386427       30.023036 # M1  
281  71   1  0.000000  12.681310        4.782632       12.488593 # O1  
282  71   2  0.520000  13.482459        4.868444       11.971846 # H1  
283  71   2  0.520000  12.824678        5.346097       13.248977 # H2  
284  71   3 -1.040000  12.802220        4.865747       12.519782 # M1  
285  72   1  0.000000  25.806875       10.767871       21.308487 # O1  
286  72   2  0.520000  24.899404       10.531896       21.116022 # H1  
287  72   2  0.520000  26.188339        9.972055       21.679153 # H2  
288  72   3 -1.040000  25.739540       10.635789       21.331299 # M1  
289  73   1  0.000000   2.203927       21.431933       17.365372 # O1  
290  73   2  0.520000   2.647489       21.786964       18.135720 # H1  
291  73   2  0.520000   1.479461       22.036780       17.205562 # H2  
292  73   3 -1.040000   2.167968       21.554809       17.443528 # M1  
293  74   1  0.000000  32.445690       21.266771       28.068581 # O1  
294  74   2  0.520000  33.244433       21.701128       27.769289 # H1  
295  74   2  0.520000  32.638215       20.332143       27.993509 # H2  
296  74   3 -1.040000  32.572584       21.202730       28.020658 # M1  
297  75   1  0.000000  11.452737       27.041427        5.323723 # O1  
298  75   2  0.520000  11.851974       26.214424        5.053713 # H1  
299  75   2  0.520000  10.901035       27.294511        4.583585 # H2  
300  75   3 -1.040000  11.433220       26.967959        5.194412 # M1  
301  76   1  0.000000   7.713841       35.267082       25.329642 # O1  
302  76   2  0.520000   8.019891       34.811843       24.545218 # H1  
303  76   2  0.520000   7.210282       34.608560       25.808191 # H2  
304  76   3 -1.040000   7.688557       35.124507       25.290486 # M1  
305  77   1  0.000000  32.259821       16.310005        0.412554 # O1  
306  77   2  0.520000  32.573627       15.741510        1.115811 # H1  
307  77   2  0.520000  31.553458       15.813291       -0.000430 # H2  
308  77   3 -1.040000  32.209569       16.173646        0.449713 # M1  
309  78   1  0.000000  25.948682        9.730621       32.409842 # O1  
310  78   2  0.520000  25.283620        9.863746       33.085269 # H1  
311  78   2  0.520000  25.584093        9.049216       31.845047 # H2  
312  78   3 -1.040000  25.816874        9.660435       32.424004 # M1  
313  79   1  0.000000   7.864788       18.928134        9.181238 # O1
314  79   2  0.520000   8.744782       18.574305        9.052215 # H1
315  79   2  0.520000   7.492190       18.394695        9.883267 # H2
316  79   3 -1.040000   7.929741       18.814553        9.254590 # M1
317  80   1  0.000000  15.105771        4.251611        7.862669 # O1
318  80   2  0.520000  16.033735        4.453737        7.743263 # H1
319  80   2  0.520000  14.664317        5.097631        7.787835 # H2
320  80   3 -1.040000  15.168050        4.385786        7.837804 # M1
321  81   1  0.000000   5.594871       15.212815       24.446023 # O1  
322  81   2  0.520000   5.097278       14.758939       23.765855 # H1  
323  81   2  0.520000   5.714832       16.098990       24.104652 # H2  
324  81   3 -1.040000   5.546530       15.268155       24.315254 # M1  
325  82   1  0.000000  34.101674       21.096417       12.895769 # O1  
326  82   2  0.520000  34.176615       21.328522       13.821373 # H1  
327  82   2  0.520000  34.324662       21.901075       12.427760 # H2  
328  82   3 -1.040000  34.139812       21.229135       12.954347 # M1  
329  83   1  0.000000   0.580862       29.781339       33.301462 # O1  
330  83   2  0.520000  -0.003968       30.539088       33.305989 # H1  
331  83   2  0.520000  -0.006044       29.025190       33.304713 # H2  
332  83   3 -1.040000   0.430866       29.781544       33.302457 # M1  
333  84   1  0.000000  30.678954        3.991944       18.057131 # O1  
334  84   2  0.520000  31.520759        3.907625       17.609374 # H1  
335  84   2  0.520000  30.442664        4.913586       17.952371 # H2  
336  84   3 -1.040000  30.756468        4.099131       17.986402 # M1  
337  85   1  0.000000   5.310848        8.825895        6.141904 # O1
338  85   2  0.520000   6.260956        8.718157        6.185722 # H1
339  85   2  0.520000   4.966871        7.932866        6.162129 # H2
340  85   3 -1.040000   5.388440        8.697785        6.150102 # M1
341  86   1  0.000000  25.316566       12.030481       11.599394 # O1  
342  86   2  0.520000  25.707850       11.617924       12.369410 # H1  
343  86   2  0.520000  25.291950       12.963153       11.813282 # H2  
344  86   3 -1.040000  25.363504       12.097062       11.725346 # M1  
345  87   1  0.000000   3.390399       30.337054       30.098456 # O1  
346  87   2  0.520000   3.206605       29.520268       29.634440 # H1  
347  87   2  0.520000   2.557478       30.574045       30.506266 # H2  
348  87   3 -1.040000   3.260247       30.262833       30.091261 # M1  
349  88   1  0.000000  -0.000531        2.199640       12.997365 # O1  
350  88   2  0.520000   0.016123        3.156693       12.995196 # H1
351  88   2  0.520000   0.890342        1.944657       13.237280 # H2
352  88   3 -1.040000   0.115643        2.289514       13.027799 # M1
353  89   1  0.000000   1.835899        7.499878       31.723176 # O1
354  89   2  0.520000   2.324076        6.676975       31.750440 # H1
355  89   2  0.520000   2.510413        8.179025       31.718553 # H2
356  89   3 -1.040000   1.984737        7.481476       31.726074 # M1
357  90   1  0.000000   5.306189        2.395925       25.736652 # O1
358  90   2  0.520000   4.829602        1.645668       25.381391 # H1
359  90   2  0.520000   5.531671        2.922128       24.969515 # H2
360  90   3 -1.040000   5.274044        2.367244       25.592971 # M1
361  91   1  0.000000  20.620148       33.173934       34.622229 # O1  
362  91   2  0.520000  20.225127       33.923484       34.176848 # H1  
363  91   2  0.520000  21.398429       32.969586       34.103817 # H2  
364  91   3 -1.040000  20.669210       33.243726       34.498852 # M1  
365  92   1  0.000000  35.117271       12.436736       28.016580 # O1  
366  92   2  0.520000  36.071674       12.502822       27.985299 # H1  
367  92   2  0.520000  34.948055       11.537461       28.297475 # H2  
368  92   3 -1.040000  35.217784       12.330078       28.048534 # M1  
369  93   1  0.000000  32.275817        4.557893       23.638529 # O1  
370  93   2  0.520000  31.337691        4.747738       23.628105 # H1  
371  93   2  0.520000  32.333518        3.649226       23.933872 # H2  
372  93   3 -1.040000  32.163112        4.465875       23.675002 # M1  
373  94   1  0.000000  21.554426        1.688136       21.981710 # O1  
374  94   2  0.520000  22.016482        2.524351       21.922710 # H1  
375  94   2  0.520000  22.250087        1.032648       22.032919 # H2  
376  94   3 -1.040000  21.702628        1.711272       21.980713 # M1  
377  95   1  0.000000   5.240836       25.895604        2.376615 # O1
378  95   2  0.520000   4.624853       25.904732        3.109222 # H1
379  95   2  0.520000   5.950102       26.476325        2.652180 # H2
380  95   3 -1.040000   5.252778       25.971112        2.505673 # M1
381  96   1  0.000000   4.834261        6.311852       25.107128 # O1
382  96   2  0.520000   5.134974        6.991949       25.709847 # H1
383  96   2  0.520000   4.173724        5.827338       25.602273 # H2
384  96   3 -1.040000   4.788199        6.336889       25.247668 # M1
385  97   1  0.000000  35.758242       19.762936       16.113459 # O1  
386  97   2  0.520000  35.019341       19.914340       15.524110 # H1  
387  97   2  0.520000  35.415115       19.168622       16.780757 # H2  
388  97   3 -1.040000  35.619729       19.706238       16.123438 # M1  
389  98   1  0.000000  14.992584       33.283859       33.683071 # O1  
390  98   2  0.520000  15.774602       33.325111       33.132638 # H1  
391  98   2  0.520000  15.320896       33.040342       34.548601 # H2  
392  98   3 -1.040000  15.134719       33.257967       33.723408 # M1  
393  99   1  0.000000  25.290942       37.442466       20.552739 # O1  
394  99   2  0.520000  26.059427       38.006445       20.639855 # H1  
395  99   2  0.520000  24.552604       38.005183       20.786056 # H2  
396  99   3 -1.040000  25.294801       37.586697       20.593758 # M1  
397  100  1  0.000000  33.984605       27.971791       24.415231 # O1  
398  100  2  0.520000  33.490405       28.317107       23.671757 # H1  
399  100  2  0.520000  33.393066       27.339902       24.823923 # H2  
400  100  3 -1.040000  33.845617       27.935106       24.372375 # M1  
401  101  1  0.000000   6.658632       18.883620       18.346833 # O1  
402  101  2  0.520000   7.603636       19.009045       18.260413 # H1  
403  101  2  0.520000   6.548754       17.936261       18.428492 # H2  