LAMMPS data file for the TIP4P-Ew water model (explicit)

 8000 atoms
 0 bonds
 0 angles
 0 dihedrals
 0 impropers

 3 atom types
 0 bond types
 0 angle types
 0 dihedral types
 0 improper types

0.000000 38.875493 xlo xhi
0.000000 38.875493 ylo yhi
0.000000 38.875493 zlo zhi

Masses

  1   15.999000  # O
  2    1.008000  # H
  3    1.e-16    # M

# Pair Coeffs
#
# 1  O1
# 2  H1 H2
# 3  M1

# Bond Coeffs
#
# 1    500.000000   0.957200   # O-H
# 2    500.000000   0.125000   # O-M

# Angle Coeffs
#
# 1  H1-M1-H2
# 2  H1-M1-O1
# 3  50.000000  104.5200000    H1-O1-H2
# 4  H1-O1-M1
# 5  H2-M1-O1
# 6  H2-O1-M1
# 7  M1-H1-O1
# 8  M1-H2-O1

 Atoms # full

1    1    1  0.000000  24.059475       14.385082       36.816014 # O1  
2    1    2  0.524220  24.284441       15.305537       36.951596 # H1  
3    1    2  0.524220  24.830459       14.009736       36.390655 # H2  
4    1    3 -1.048440  24.165719       14.443232       36.785101 # M1  
5    2    1  0.000000  36.095023        8.993689       22.829337 # O1  
6    2    2  0.524220  37.004794        9.034575       23.124084 # H1  
7    2    2  0.524220  35.958415        9.815324       22.357655 # H2  
8    2    3 -1.048440  36.177501        9.085700       22.810462 # M1  
9    3    1  0.000000   3.176453       33.387022        9.223931 # O1
10   3    2  0.524220   2.221650       33.403063        9.158169 # H1
11   3    2  0.524220   3.400290       32.456504        9.240202 # H2
12   3    3 -1.048440   3.098476       33.289469        9.218652 # M1
13   4    1  0.000000   5.030952       34.808335        9.161582 # O1
14   4    2  0.524220   5.733680       35.455296        9.099565 # H1
15   4    2  0.524220   4.254488       35.265727        8.838895 # H2
16   4    3 -1.048440   5.023086       34.926143        9.120543 # M1
17   5    1  0.000000  30.843745       34.769309       17.325646 # O1  
18   5    2  0.524220  31.786284       34.642154       17.433736 # H1  
19   5    2  0.524220  30.731871       35.719410       17.293637 # H2  
20   5    3 -1.048440  30.932358       34.857098       17.333762 # M1  
21   6    1  0.000000   9.263284        0.279517       25.871282 # O1  
22   6    2  0.524220   9.799097       -0.001606       26.612972 # H1  
23   6    2  0.524220   9.893982        0.607222       25.230142 # H2  
24   6    3 -1.048440   9.387723        0.284487       25.882008 # M1  
25   7    1  0.000000  16.807622        1.285237       20.850186 # O1  
26   7    2  0.524220  17.578844        1.793298       21.101823 # H1  
27   7    2  0.524220  17.077446        0.372620       20.952933 # H2  
28   7    3 -1.048440  16.918677        1.242080       20.887990 # M1  
29   8    1  0.000000  28.459380       30.112281       18.805326 # O1  
30   8    2  0.524220  29.401106       30.279323       18.843789 # H1  
31   8    2  0.524220  28.063922       30.865532       19.244027 # H2  
32   8    3 -1.048440  28.517654       30.210455       18.856229 # M1  
33   9    1  0.000000   7.592603       21.857837       18.246939 # O1  
34   9    2  0.524220   8.377726       21.484241       18.647238 # H1  
35   9    2  0.524220   7.901766       22.648315       17.804452 # H2  
36   9    3 -1.048440   7.709338       21.902309       18.242438 # M1  
37   10   1  0.000000  34.847423       26.859879       33.656526 # O1  
38   10   2  0.524220  34.188676       26.546648       34.276340 # H1  
39   10   2  0.524220  34.605608       27.770798       33.489247 # H2  
40   10   3 -1.048440  34.751354       26.923638       33.704801 # M1  
41   11   1  0.000000   5.329850        3.142835       30.034207 # O1
42   11   2  0.524220   5.290376        3.054889       30.986540 # H1
43   11   2  0.524220   5.267078        2.245307       29.707506 # H2
44   11   3 -1.048440   5.318943        3.037708       30.100947 # M1
45   12   1  0.000000  12.169807       16.587188       29.614693 # O1  
46   12   2  0.524220  11.244341       16.390524       29.759840 # H1  
47   12   2  0.524220  12.169591       17.238701       28.913435 # H2  
48   12   3 -1.048440  12.071058       16.635710       29.555369 # M1  
49   13   1  0.000000  15.093380       24.756218       18.479194 # O1  
50   13   2  0.524220  15.580331       24.918738       17.671298 # H1  
51   13   2  0.524220  15.644757       24.150037       18.973927 # H2  
52   13   3 -1.048440  15.204146       24.708890       18.445787 # M1  
53   14   1  0.000000  28.043408       11.288391       13.521477 # O1  
54   14   2  0.524220  28.408015       10.403512       13.538312 # H1  
55   14   2  0.524220  27.141657       11.182198       13.824460 # H2  
56   14   3 -1.048440  27.986108       11.182666       13.555594 # M1  
57   15   1  0.000000  21.287487        9.965878       11.427875 # O1  
58   15   2  0.524220  21.426620        9.019605       11.465844 # H1  
59   15   2  0.524220  21.239382       10.164037       10.492648 # H2  
60   15   3 -1.048440  21.297198        9.886071       11.332158 # M1  
61   16   1  0.000000  18.446795       22.915294        3.470820 # O1  
62   16   2  0.524220  17.571821       23.303410        3.475092 # H1  
63   16   2  0.524220  19.041901       23.665009        3.473416 # H2  
64   16   3 -1.048440  18.416939       23.036675        3.471553 # M1  
65   17   1  0.000000  29.652047        5.539898       35.961434 # O1  
66   17   2  0.524220  29.749604        5.736491       35.029734 # H1  
67   17   2  0.524220  29.995838        4.651647       36.056561 # H2  
68   17   3 -1.048440  29.699129        5.466114       35.872191 # M1  
69   18   1  0.000000  31.443588       19.652510       31.319528 # O1  
70   18   2  0.524220  31.669886       18.809903       31.713273 # H1  
71   18   2  0.524220  30.511456       19.762535       31.507294 # H2  
72   18   3 -1.048440  31.368292       19.574361       31.381562 # M1  
73   19   1  0.000000  14.587312       28.231055        3.238021 # O1  
74   19   2  0.524220  14.263148       27.514034        3.783025 # H1  
75   19   2  0.524220  15.387041       27.887279        2.839920 # H2  
76   19   3 -1.048440  14.638044       28.117892        3.253692 # M1  
77   20   1  0.000000  30.180786        8.093574        7.604188 # O1
78   20   2  0.524220  30.507058        7.459317        6.965834 # H1
79   20   2  0.524220  30.681888        7.913066        8.399514 # H2
80   20   3 -1.048440  30.269047        8.006657        7.620933 # M1
81   21   1  0.000000   0.008507       30.289756       28.962144 # O1  
82   21   2  0.524220   0.389532       30.793396       29.681448 # H1  
83   21   2  0.524220   0.414747       29.425894       29.032452 # H2  
84   21   3 -1.048440   0.092490       30.251329       29.046377 # M1  
85   22   1  0.000000   2.190765       18.417140       -0.000010 # O1
86   22   2  0.524220   1.255730       18.621931       -0.000006 # H1
87   22   2  0.524220   2.226945       17.460624       -0.000026 # H2
88   22   3 -1.048440   2.094878       18.336948       -0.000011 # M1
89   23   1  0.000000   3.130268       36.103158       16.914051 # O1  
90   23   2  0.524220   2.623472       35.294771       16.990855 # H1  
91   23   2  0.524220   4.040845       35.811935       16.866406 # H2  
92   23   3 -1.048440   3.173342       35.985855       16.917162 # M1  
93   24   1  0.000000  30.809705        1.842429       30.517077 # O1  
94   24   2  0.524220  31.015363        2.777265       30.521405 # H1  
95   24   2  0.524220  31.635630        1.416062       30.288408 # H2  
96   24   3 -1.048440  30.919751        1.896671       30.493145 # M1  
97   25   1  0.000000  10.302768       13.869177        4.772435 # O1  
98   25   2  0.524220  11.139319       13.404684        4.746751 # H1  
99   25   2  0.524220  10.542026       14.795765        4.751900 # H2  
100  25   3 -1.048440  10.417532       13.918472        4.767504 # M1  
101  26   1  0.000000  14.237189       12.679829        7.967610 # O1  
102  26   2  0.524220  14.153918       13.617055        7.791813 # H1  
103  26   2  0.524220  15.167337       12.552366        8.154184 # H2  
104  26   3 -1.048440  14.327531       12.766212        7.968759 # M1  
105  27   1  0.000000  13.308165       15.263329        3.721961 # O1  
106  27   2  0.524220  12.526752       15.706270        3.391162 # H1  
107  27   2  0.524220  13.987603       15.937521        3.714166 # H2  
108  27   3 -1.048440  13.297287       15.382502        3.685841 # M1  
109  28   1  0.000000  26.227867        8.971453       18.519482 # O1  
110  28   2  0.524220  25.801633        8.152731       18.266007 # H1  
111  28   2  0.524220  26.795119        9.185991       17.778922 # H2  
112  28   3 -1.048440  26.242910        8.907001       18.413442 # M1  
113  29   1  0.000000   6.708270       24.289318       31.125660 # O1  
114  29   2  0.524220   6.601444       24.116661       30.190241 # H1  
115  29   2  0.524220   7.379571       23.668650       31.409132 # H2  
116  29   3 -1.048440   6.768486       24.204689       31.056112 # M1  
117  30   1  0.000000   2.099347        1.518688       34.192738 # O1
118  30   2  0.524220   1.761581        2.414310       34.190212 # H1
119  30   2  0.524220   3.051046        1.621123       34.195362 # H2
120  30   3 -1.048440   2.164840        1.625158       34.192748 # M1
121  31   1  0.000000  10.709416       11.435432        0.354039 # O1  
122  31   2  0.524220  10.335303       10.554437        0.364861 # H1
123  31   2  0.524220   9.950558       12.018622        0.370025 # H2  
124  31   3 -1.048440  10.588555       11.403663        0.356899 # M1  
125  32   1  0.000000  20.473143       13.430495       11.125505 # O1  
126  32   2  0.524220  20.503931       12.573701       10.699845 # H1  
127  32   2  0.524220  21.280811       13.864318       10.850368 # H2  
128  32   3 -1.048440  20.562586       13.385374       11.050746 # M1  
129  33   1  0.000000  29.119843       35.259976       28.027541 # O1  
130  33   2  0.524220  28.640122       34.432422       27.992143 # H1  
131  33   2  0.524220  28.449528       35.931529       27.901344 # H2  
132  33   3 -1.048440  28.997161       35.243334       28.010302 # M1  
133  34   1  0.000000   6.595371       31.474965       27.587367 # O1  
134  34   2  0.524220   6.712822       31.923564       28.424741 # H1  
135  34   2  0.524220   5.709413       31.115123       27.630079 # H2  
136  34   3 -1.048440   6.513389       31.484433       27.681252 # M1  
137  35   1  0.000000   7.128805       12.495273       19.784261 # O1  
138  35   2  0.524220   6.796673       13.351786       20.053155 # H1  
139  35   2  0.524220   7.795681       12.280876       20.436596 # H2  
140  35   3 -1.048440   7.164514       12.563772       19.882535 # M1  
141  36   1  0.000000  33.906303        6.129033       13.615975 # O1  
142  36   2  0.524220  33.129530        6.637461       13.382830 # H1  
143  36   2  0.524220  34.119097        5.638312       12.822159 # H2  
144  36   3 -1.048440  33.846139        6.130922       13.506422 # M1  
145  37   1  0.000000  34.676972        8.434469       16.834080 # O1  
146  37   2  0.524220  33.947244        8.915676       17.224167 # H1  
147  37   2  0.524220  34.928010        7.796378       17.501950 # H2  
148  37   3 -1.048440  34.625907        8.417733       16.946939 # M1  
149  38   1  0.000000  27.968668       25.649025       24.322849 # O1  
150  38   2  0.524220  27.249471       26.266580       24.455560 # H1  
151  38   2  0.524220  28.671664       26.177070       23.944435 # H2  
152  38   3 -1.048440  27.966940       25.771234       24.296638 # M1  
153  39   1  0.000000  23.179227        8.019740       34.529402 # O1  
154  39   2  0.524220  23.729823        8.798583       34.448907 # H1  
155  39   2  0.524220  22.500830        8.269236       35.156905 # H2  
156  39   3 -1.048440  23.165594        8.129440       34.587755 # M1  
157  40   1  0.000000  19.932973       20.868658        9.702235 # O1  
158  40   2  0.524220  19.399503       20.091738        9.534795 # H1  
159  40   2  0.524220  19.303435       21.588799        9.738448 # H2  
160  40   3 -1.048440  19.808907       20.862601        9.688236 # M1  
161  41   1  0.000000   0.676322        9.371036       29.107167 # O1
162  41   2  0.524220  -0.000350        8.696082       29.159914 # H1  
163  41   2  0.524220   0.194177       10.197296       29.139746 # H2
164  41   3 -1.048440   0.552703        9.387177       29.116269 # M1
165  42   1  0.000000  10.771537       32.486378       27.477417 # O1  
166  42   2  0.524220  10.281575       31.680924       27.311853 # H1  
167  42   2  0.524220  11.686675       32.207848       27.511697 # H2  
168  42   3 -1.048440  10.816894       32.370742       27.463412 # M1  
169  43   1  0.000000  21.501963        0.869681       24.919339 # O1  
170  43   2  0.524220  20.799796        0.635901       24.312264 # H1  
171  43   2  0.524220  21.839230        1.701665       24.587248 # H2  
172  43   3 -1.048440  21.463037        0.933496       24.819151 # M1  
173  44   1  0.000000  20.004943       28.296689        4.840282 # O1  
174  44   2  0.524220  20.099266       29.249197        4.848163 # H1  
175  44   2  0.524220  19.059506       28.149357        4.814320 # H2  
176  44   3 -1.048440  19.914149       28.382582        4.838353 # M1  
177  45   1  0.000000  15.543021       18.363834       22.122510 # O1  
178  45   2  0.524220  14.939098       18.481048       21.389182 # H1  
179  45   2  0.524220  15.996866       19.203373       22.196192 # H2  
180  45   3 -1.048440  15.527011       18.465897       22.052141 # M1  
181  46   1  0.000000  30.804966       13.901769       23.654193 # O1  
182  46   2  0.524220  31.566442       13.355494       23.459339 # H1  
183  46   2  0.524220  30.057781       13.308600       23.576115 # H2  
184  46   3 -1.048440  30.806491       13.780217       23.625077 # M1  
185  47   1  0.000000  10.122222        0.581773        8.018278 # O1
186  47   2  0.524220   9.715395        0.450726        8.874753 # H1
187  47   2  0.524220   9.623921        0.017534        7.427041 # H2
188  47   3 -1.048440  10.025666        0.507602        8.046572 # M1
189  48   1  0.000000  24.903803       24.375385        3.159234 # O1  
190  48   2  0.524220  24.388052       23.596394        2.950894 # H1  
191  48   2  0.524220  24.327786       25.109080        2.944461 # H2  
192  48   3 -1.048440  24.787337       24.370553        3.114098 # M1  
193  49   1  0.000000  30.985552       25.829531       21.427129 # O1  
194  49   2  0.524220  31.374037       26.487166       22.004040 # H1  
195  49   2  0.524220  31.512253       25.043249       21.570577 # H2  
196  49   3 -1.048440  31.083181       25.815807       21.503975 # M1  
197  50   1  0.000000   0.918506        5.496067       10.160127 # O1
198  50   2  0.524220   0.119505        5.903774        9.826057 # H1
199  50   2  0.524220   1.138120        4.829593        9.509117 # H2
200  50   3 -1.048440   0.856699        5.468462       10.055042 # M1
201  51   1  0.000000  17.369836       12.373179        1.792968 # O1  
202  51   2  0.524220  17.826227       11.874352        2.470544 # H1  
203  51   2  0.524220  17.564807       11.907455        0.979754 # H2  
204  51   3 -1.048440  17.439322       12.270284        1.778499 # M1  
205  52   1  0.000000   9.893188        3.311257       14.446975 # O1
206  52   2  0.524220   9.303304        4.055211       14.568636 # H1
207  52   2  0.524220   9.324743        2.542993       14.500574 # H2
208  52   3 -1.048440   9.769621        3.308664       14.465671 # M1
209  53   1  0.000000  16.402973       18.652068       34.680963 # O1  
210  53   2  0.524220  17.124923       18.027003       34.615278 # H1  
211  53   2  0.524220  16.829697       19.507695       34.726133 # H2  
212  53   3 -1.048440  16.525510       18.676663       34.678774 # M1  
213  54   1  0.000000  24.056756       14.316805       17.078689 # O1  
214  54   2  0.524220  24.649360       14.435209       17.821005 # H1  
215  54   2  0.524220  23.473907       13.606799       17.347780 # H2  
216  54   3 -1.048440  24.057797       14.253695       17.186583 # M1  
217  55   1  0.000000  18.993502       21.914821       36.252320 # O1  
218  55   2  0.524220  18.607066       22.723407       36.588604 # H1  
219  55   2  0.524220  19.458851       21.541758       37.000989 # H2  
220  55   3 -1.048440  19.001920       21.961281       36.368059 # M1  
221  56   1  0.000000  36.988554       30.840339       31.227498 # O1  
222  56   2  0.524220  36.743685       31.655210       30.789029 # H1  
223  56   2  0.524220  36.749112       30.152358       30.606546 # H2  
224  56   3 -1.048440  36.936889       30.853875       31.114482 # M1  
225  57   1  0.000000  11.270108       29.940367       25.621286 # O1  
226  57   2  0.524220  11.819988       29.805164       24.849545 # H1  
227  57   2  0.524220  10.725176       30.695100       25.398448 # H2  
228  57   3 -1.048440  11.270636       30.006456       25.515188 # M1  
229  58   1  0.000000  13.507147       23.364419        7.604893 # O1  
230  58   2  0.524220  13.357616       24.157949        7.090907 # H1  
231  58   2  0.524220  14.438991       23.391220        7.822104 # H2  
232  58   3 -1.048440  13.590602       23.451930        7.573234 # M1  
233  59   1  0.000000  11.306543       23.759246        7.779076 # O1  
234  59   2  0.524220  10.605690       23.110043        7.719317 # H1  
235  59   2  0.524220  10.852473       24.590662        7.916188 # H2  
236  59   3 -1.048440  11.183339       23.778684        7.787328 # M1  
237  60   1  0.000000  15.466225       22.204715       17.917374 # O1  
238  60   2  0.524220  14.909214       22.792376       17.406860 # H1  
239  60   2  0.524220  16.291602       22.175783       17.433486 # H2  
240  60   3 -1.048440  15.494854       22.264319       17.811294 # M1  
241  61   1  0.000000  36.095855       36.437875        1.677452 # O1  
242  61   2  0.524220  36.691581       35.742879        1.957316 # H1  
243  61   2  0.524220  35.222234       36.096423        1.868314 # H2  
244  61   3 -1.048440  36.066210       36.327310        1.727668 # M1  
245  62   1  0.000000   2.812848       27.230643        1.948314 # O1
246  62   2  0.524220   3.718247       27.514822        2.073716 # H1
247  62   2  0.524220   2.624925       26.684262        2.711455 # H2
248  62   3 -1.048440   2.889386       27.202672        2.043101 # M1
249  63   1  0.000000   8.221376        7.466119        4.737225 # O1
250  63   2  0.524220   8.118127        6.748834        4.111867 # H1
251  63   2  0.524220   7.872915        8.232964        4.282522 # H2
252  63   3 -1.048440   8.173189        7.471406        4.622008 # M1
253  64   1  0.000000   4.915819       29.173134        0.300944 # O1
254  64   2  0.524220   4.027758       28.816622        0.322802 # H1
255  64   2  0.524220   4.800946       30.087826        0.043313 # H2
256  64   3 -1.048440   4.808830       29.232679        0.275792 # M1
257  65   1  0.000000  33.734960        6.360325        9.842258 # O1
258  65   2  0.524220  34.351994        6.854293       10.382161 # H1  
259  65   2  0.524220  34.259068        5.654568        9.463512 # H2
260  65   3 -1.048440  33.856694        6.337732        9.859450 # M1  
261  66   1  0.000000  15.040667       21.486638       15.598282 # O1  
262  66   2  0.524220  15.945348       21.642804       15.327364 # H1  
263  66   2  0.524220  14.916112       20.544127       15.486970 # H2  
264  66   3 -1.048440  15.123889       21.402753       15.557507 # M1  
265  67   1  0.000000  27.735224        8.619582        9.209422 # O1  
266  67   2  0.524220  28.472718        8.947666        8.694937 # H1
267  67   2  0.524220  27.999342        8.753174       10.119711 # H2
268  67   3 -1.048440  27.842073        8.668832        9.251645 # M1  
269  68   1  0.000000  21.915834       32.551036        4.245852 # O1  
270  68   2  0.524220  21.119226       33.080889        4.215818 # H1  
271  68   2  0.524220  21.601962       31.647202        4.274140 # H2  
272  68   3 -1.048440  21.797372       32.511141        4.245666 # M1  
273  69   1  0.000000  24.834085       26.449378       15.872478 # O1  
274  69   2  0.524220  24.643629       26.360540       16.806322 # H1  
275  69   2  0.524220  24.765275       27.388725       15.701817 # H2  
276  69   3 -1.048440  24.806427       26.540108       15.953892 # M1  
277  70   1  0.000000  11.749376       24.930953       29.842093 # O1  
278  70   2  0.524220  12.450539       24.474113       29.377443 # H1  
279  70   2  0.524220  11.074203       24.265062       29.972331 # H2  
280  70   3 -1.048440  11.752149       24.811184       29.806419 # M1  
281  71   1  0.000000  13.210822        3.553744       12.865548 # O1  
282  71   2  0.524220  13.062708        2.824437       12.263547 # H1  
283  71   2  0.524220  13.436177        4.291135       12.298361 # H2  
284  71   3 -1.048440  13.219061        3.554607       12.740823 # M1  
285  72   1  0.000000  25.063777       10.565945       20.707308 # O1  
286  72   2  0.524220  25.400655        9.718673       20.415976 # H1  
287  72   2  0.524220  24.203502       10.367800       21.077302 # H2  
288  72   3 -1.048440  25.007943       10.454423       20.715699 # M1  
289  73   1  0.000000   2.003503       21.758150       16.775700 # O1  
290  73   2  0.524220   2.570533       21.388901       17.452725 # H1  
291  73   2  0.524220   1.346819       21.080148       16.616609 # H2  
292  73   3 -1.048440   1.993939       21.646433       16.830951 # M1  
293  74   1  0.000000  30.292829       21.093860       26.075231 # O1  
294  74   2  0.524220  30.482826       21.278814       26.994973 # H1  
295  74   2  0.524220  29.344100       21.196800       26.000754 # H2  
296  74   3 -1.048440  30.211890       21.124572       26.165401 # M1  
297  75   1  0.000000  10.991257       26.650369        4.703729 # O1  
298  75   2  0.524220  11.557209       25.945265        5.017985 # H1  
299  75   2  0.524220  10.580860       26.999381        5.494928 # H2  
300  75   3 -1.048440  11.007851       26.612382        4.821655 # M1  
301  76   1  0.000000   6.951672       33.926636       24.676860 # O1  
302  76   2  0.524220   7.798912       34.058794       24.251479 # H1  
303  76   2  0.524220   6.425129       34.676995       24.401278 # H2  
304  76   3 -1.048440   6.985883       34.020780       24.602083 # M1  
305  77   1  0.000000  31.484349       15.828529        0.575152 # O1  
306  77   2  0.524220  31.605645       15.066467        0.008777 # H1  
307  77   2  0.524220  31.117087       16.499338       -0.000491 # H2  
308  77   3 -1.048440  31.458110       15.818794        0.453325 # M1  
309  78   1  0.000000  26.175068        7.339616       31.205558 # O1  
310  78   2  0.524220  26.562327        7.341876       32.080918 # H1  
311  78   2  0.524220  26.632111        8.039465       30.739131 # H2  
312  78   3 -1.048440  26.265136        7.414514       31.249181 # M1  
313  79   1  0.000000   8.924626       18.218854        9.276070 # O1
314  79   2  0.524220   9.042138       19.167493        9.226021 # H1
315  79   2  0.524220   7.982451       18.087789        9.169485 # H2
316  79   3 -1.048440   8.836654       18.306070        9.259361 # M1
317  80   1  0.000000  15.318691        4.183221        7.765570 # O1
318  80   2  0.524220  15.359119        3.736684        6.919875 # H1
319  80   2  0.524220  15.643996        5.065535        7.586879 # H2
320  80   3 -1.048440  15.357706        4.229709        7.656292 # M1
321  81   1  0.000000   5.006058       15.547014       23.502372 # O1  
322  81   2  0.524220   5.848639       15.126743       23.674595 # H1  
323  81   2  0.524220   4.370047       14.832482       23.536506 # H2  
324  81   3 -1.048440   5.028094       15.425957       23.524385 # M1  
325  82   1  0.000000  32.878397       20.328162       12.973713 # O1  
326  82   2  0.524220  32.921051       19.664233       13.661906 # H1  
327  82   2  0.524220  33.061647       21.152702       13.424029 # H2  
328  82   3 -1.048440  32.902496       20.345295       13.095166 # M1  
329  83   1  0.000000   0.583340       29.192814       32.535020 # O1  
330  83   2  0.524220  -0.000001       28.511850       32.200009 # H1  
331  83   2  0.524220  -0.000004       29.818772       32.964108 # H2  
332  83   3 -1.048440   0.458882       29.186946       32.545056 # M1  
333  84   1  0.000000  29.625419        3.745174       17.429012 # O1  
334  84   2  0.524220  29.602998        4.702090       17.435304 # H1  
335  84   2  0.524220  30.549397        3.527575       17.305938 # H2  
336  84   3 -1.048440  29.721594        3.824042       17.416554 # M1  
337  85   1  0.000000   5.848815        8.609442        6.521078 # O1
338  85   2  0.524220   5.662896        7.671745        6.569953 # H1
339  85   2  0.524220   6.804244        8.665753        6.535791 # H2
340  85   3 -1.048440   5.930904        8.515418        6.527861 # M1
341  86   1  0.000000  24.938861       12.211697       11.826340 # O1  
342  86   2  0.524220  24.841271       11.268770       11.958984 # H1  
343  86   2  0.524220  24.746033       12.344717       10.898248 # H2  
344  86   3 -1.048440  24.907880       12.125299       11.741484 # M1  
345  87   1  0.000000   2.813699       29.930363       28.920902 # O1  
346  87   2  0.524220   2.265948       30.593465       28.500788 # H1  
347  87   2  0.524220   3.577571       29.852794       28.349313 # H2  
348  87   3 -1.048440   2.836754       29.992826       28.815110 # M1  
349  88   1  0.000000  -0.010464        1.473691       13.013703 # O1  
350  88   2  0.524220   0.885278        1.804817       12.948642 # H1
351  88   2  0.524220   0.090841        0.554340       13.260201 # H2
352  88   3 -1.048440   0.095898        1.410941       13.033058 # M1
353  89   1  0.000000   1.251254        4.228896       27.359174 # O1
354  89   2  0.524220   0.374595        3.858160       27.460444 # H1
355  89   2  0.524220   1.839404        3.545582       27.680722 # H2
356  89   3 -1.048440   1.220477        4.116453       27.404279 # M1
357  90   1  0.000000   4.817331        2.569922       25.160376 # O1
358  90   2  0.524220   4.021671        3.044428       24.919543 # H1
359  90   2  0.524220   5.501563        3.239186       25.172289 # H2
360  90   3 -1.048440   4.805444        2.691935       25.135956 # M1
361  91   1  0.000000  20.502636       32.333439       33.092440 # O1  
362  91   2  0.524220  19.879454       32.551662       33.785445 # H1  
363  91   2  0.524220  21.292354       32.825974       33.316017 # H2  
364  91   3 -1.048440  20.520401       32.409261       33.190218 # M1  
365  92   1  0.000000  34.533376       12.177010       27.281324 # O1  
366  92   2  0.524220  35.272334       12.453746       27.823164 # H1  
367  92   2  0.524220  33.762255       12.346244       27.822585 # H2  
368  92   3 -1.048440  34.529945       12.224585       27.396866 # M1  
369  93   1  0.000000  31.787673        4.299636       23.104770 # O1  
370  93   2  0.524220  30.966910        4.519043       22.663817 # H1  
371  93   2  0.524220  31.550051        3.610471       23.725107 # H2  
372  93   3 -1.048440  31.674768        4.249523       23.123906 # M1  
373  94   1  0.000000  24.327335        3.096441       21.153391 # O1  
374  94   2  0.524220  24.249382        4.023414       20.927833 # H1  
375  94   2  0.524220  25.267778        2.953731       21.260312 # H2  
376  94   3 -1.048440  24.419343        3.180104       21.140735 # M1  
377  95   1  0.000000   5.258795       25.258193        2.723937 # O1
378  95   2  0.524220   6.214513       25.211872        2.697714 # H1
379  95   2  0.524220   5.070485       26.113725        3.109728 # H2
380  95   3 -1.048440   5.340659       25.344517        2.762294 # M1
381  96   1  0.000000   4.516267        6.099250       24.418125 # O1
382  96   2  0.524220   3.765078        5.507702       24.373217 # H1
383  96   2  0.524220   5.273216        5.519786       24.504619 # H2
384  96   3 -1.048440   4.516882        5.974330       24.422561 # M1
385  97   1  0.000000  33.963817       19.012662       15.486222 # O1  
386  97   2  0.524220  34.895155       19.232412       15.509654 # H1  
387  97   2  0.524220  33.943428       18.055896       15.465866 # H2  
388  97   3 -1.048440  34.060994       18.934039       15.486550 # M1  
389  98   1  0.000000  14.585980       32.154027       32.898671 # O1  
390  98   2  0.524220  14.786155       32.871378       32.297366 # H1  
391  98   2  0.524220  15.376138       32.059132       33.430534 # H2  
392  98   3 -1.048440  14.691626       32.220429       32.891263 # M1  
393  99   1  0.000000  24.201627       36.725275       19.807023 # O1  
394  99   2  0.524220  24.707436       36.999624       20.571955 # H1  
395  99   2  0.524220  23.520401       36.154177       20.162002 # H2  
396  99   3 -1.048440  24.182914       36.693619       19.926492 # M1  
397  100  1  0.000000  33.100086       27.760875       24.316057 # O1  
398  100  2  0.524220  33.642449       27.669374       23.532666 # H1  
399  100  2  0.524220  32.618936       26.935328       24.372601 # H2  
400  100  3 -1.048440  33.106616       27.663047       24.238519 # M1  
401  101  1  0.000000   6.129673       18.138617       17.717357 # O1  
402  101  2  0.524220   6.566092       18.989782       17.681490 # H1  
403  101  2  0.524220   6.841731       17.501313       17.662154 # H2  