LAMMPS data file for the TIP4P-Epsilon water model (explicit)

 8000 atoms
 0 bonds
 0 angles
 0 dihedrals
 0 impropers

 3 atom types
 0 bond types
 0 angle types
 0 dihedral types
 0 improper types

0.000000 39.163653 xlo xhi
0.000000 39.163653 ylo yhi
0.000000 39.163653 zlo zhi

Masses

  1   15.999000  # O
  2    1.008000  # H
  3    1.e-16 # M

# Pair Coeffs
#
# 1  O1
# 2  H1 H2
# 3  M1

# Bond Coeffs
#
# 1    500.000000   0.957200   # O-H
# 2    500.000000   0.105000   # O-M

# Angle Coeffs
#
# 1  H1-M1-H2
# 2  H1-M1-O1
# 3  50.000000  104.520000    H1-O1-H2
# 4  H1-O1-M1
# 5  H2-M1-O1
# 6  H2-O1-M1
# 7  M1-H1-O1
# 8  M1-H2-O1

 Atoms # full

1    1    1  0.000000  24.742565       14.846830       36.490004 # O1  
2    1    2  0.527000  25.498170       14.863123       35.902614 # H1  
3    1    2  0.527000  24.882551       15.586135       37.081664 # H2  
4    1    3 -1.054000  24.822818       14.914538       36.490387 # M1  
5    2    1  0.000000  37.220485        8.416041       23.451485 # O1  
6    2    2  0.527000  36.492618        9.037343       23.430875 # H1  
7    2    2  0.527000  38.004743        8.964727       23.440821 # H2  
8    2    3 -1.054000  37.225538        8.520882       23.448683 # M1  
9    3    1  0.000000   2.962253       34.208495        9.364146 # O1
10   3    2  0.527000   3.910557       34.338497        9.357046 # H1
11   3    2  0.527000   2.850239       33.257942        9.352626 # H2
12   3    3 -1.054000   3.037192       34.134966        9.362478 # M1
13   4    1  0.000000   5.239264       36.754744        9.104701 # O1
14   4    2  0.527000   5.688215       35.989736        9.464475 # H1
15   4    2  0.527000   4.369971       36.432725        8.866238 # H2
16   4    3 -1.054000   5.201598       36.657337        9.115571 # M1
17   5    1  0.000000  30.862430       35.673967       17.714812 # O1  
18   5    2  0.527000  30.698658       36.614275       17.642491 # H1  
19   5    2  0.527000  31.808712       35.604183       17.840955 # H2  
20   5    3 -1.054000  30.932549       35.751973       17.719635 # M1  
21   6    1  0.000000  10.124994        0.560466       26.943289 # O1  
22   6    2  0.527000  11.055383        0.612433       27.162169 # H1  
23   6    2  0.527000   9.914355        1.422507       26.584474 # H2  
24   6    3 -1.054000  10.189490        0.642369       26.930750 # M1  
25   7    1  0.000000  17.547019        1.610831       21.601294 # O1  
26   7    2  0.527000  16.669504        1.634840       21.219688 # H1  
27   7    2  0.527000  17.740383        0.678573       21.699964 # H2  
28   7    3 -1.054000  17.485713        1.529444       21.575941 # M1  
29   8    1  0.000000  29.111965       31.228465       18.875444 # O1  
30   8    2  0.527000  30.051866       31.408017       18.899473 # H1  
31   8    2  0.527000  28.731613       31.997025       18.450147 # H2  
32   8    3 -1.054000  29.162105       31.313424       18.839487 # M1  
33   9    1  0.000000   7.421025       22.340886       18.749976 # O1  
34   9    2  0.527000   8.212200       21.864678       18.497985 # H1  
35   9    2  0.527000   7.692376       23.258334       18.779764 # H2  
36   9    3 -1.054000   7.516236       22.380425       18.730065 # M1  
37   10   1  0.000000  35.180060       28.057052       34.648719 # O1  
38   10   2  0.527000  35.513412       27.231939       35.001275 # H1  
39   10   2  0.527000  35.964356       28.575497       34.468927 # H2  
40   10   3 -1.054000  35.280211       28.029572       34.664200 # M1  
41   11   1  0.000000   5.780500        3.849533       30.639549 # O1
42   11   2  0.527000   6.412837        3.394593       31.195796 # H1
43   11   2  0.527000   5.092238        3.203559       30.480660 # H2
44   11   3 -1.054000   5.775489        3.750881       30.675155 # M1
45   12   1  0.000000  11.393037       17.742071       30.266360 # O1  
46   12   2  0.527000  12.339847       17.607170       30.226557 # H1  
47   12   2  0.527000  11.290391       18.608016       30.661118 # H2  
48   12   3 -1.054000  11.468681       17.807579       30.298167 # M1  
49   13   1  0.000000  15.451910       25.232828       19.332908 # O1  
50   13   2  0.527000  16.338253       25.254469       19.693682 # H1  
51   13   2  0.527000  15.409530       25.994410       18.754611 # H2  
52   13   3 -1.054000  15.527536       25.303011       19.313416 # M1  
53   14   1  0.000000  29.373975       10.885710       13.749833 # O1  
54   14   2  0.527000  28.846986       10.317168       14.311326 # H1  
55   14   2  0.527000  28.857280       11.687244       13.667368 # H2  
56   14   3 -1.054000  29.280452       10.906588       13.792758 # M1  
57   15   1  0.000000  21.925301       10.575567       11.154665 # O1  
58   15   2  0.527000  21.945753       10.056525       11.958660 # H1  
59   15   2  0.527000  22.028810        9.933837       10.452028 # H2  
60   15   3 -1.054000  21.936409       10.471552       11.163747 # M1  
61   16   1  0.000000  19.604394       23.588029        3.760032 # O1  
62   16   2  0.527000  18.956837       23.090200        4.259097 # H1  
63   16   2  0.527000  19.119728       23.924123        3.006128 # H2  
64   16   3 -1.054000  19.502938       23.573537        3.737196 # M1  
65   17   1  0.000000  30.159554        6.131108       36.495564 # O1  
66   17   2  0.527000  30.642051        5.468139       36.001701 # H1  
67   17   2  0.527000  30.298286        5.895278       37.412825 # H2  
68   17   3 -1.054000  30.215222        6.050568       36.533504 # M1  
69   18   1  0.000000  31.976306       19.982473       31.958833 # O1  
70   18   2  0.527000  32.537297       19.207506       31.928082 # H1  
71   18   2  0.527000  31.167845       19.677319       32.370541 # H2  
72   18   3 -1.054000  31.954131       19.885685       31.992970 # M1  
73   19   1  0.000000  15.132004       28.920122        3.564785 # O1  
74   19   2  0.527000  15.188449       28.149539        2.999765 # H1  
75   19   2  0.527000  14.763115       29.602456        3.003917 # H2  
76   19   3 -1.054000  15.104007       28.912214        3.463896 # M1  
77   20   1  0.000000  32.160136        7.952568        7.987593 # O1
78   20   2  0.527000  31.740702        7.092159        7.989328 # H1
79   20   2  0.527000  31.472099        8.555525        8.269162 # H2
80   20   3 -1.054000  32.060897        7.929498        8.012980 # M1
81   21   1  0.000000   0.399463       31.032173       29.923121 # O1  
82   21   2  0.527000   0.764262       31.047174       29.038289 # H1  
83   21   2  0.527000   0.421858       30.109341       30.176324 # H2  
84   21   3 -1.054000   0.434159       30.950823       29.866522 # M1  
85   22   1  0.000000   2.111631       18.816253        0.142265 # O1
86   22   2  0.527000   1.913896       17.910996        0.382352 # H1
87   22   2  0.527000   1.268610       19.267021        0.190791 # H2
88   22   3 -1.054000   2.018370       18.775527        0.168127 # M1
89   23   1  0.000000   4.682219       36.273047       18.608082 # O1  
90   23   2  0.527000   4.178890       35.480859       18.796042 # H1  
91   23   2  0.527000   5.579511       35.963555       18.484336 # H2  
92   23   3 -1.054000   4.717522       36.174327       18.613836 # M1  
93   24   1  0.000000  31.654164        2.292087       30.808369 # O1  
94   24   2  0.527000  31.796347        1.568947       30.197562 # H1  
95   24   2  0.527000  32.295262        2.147908       31.504384 # H2  
96   24   3 -1.054000  31.724353        2.214368       30.816004 # M1  
97   25   1  0.000000  10.805287       13.960507        4.722986 # O1  
98   25   2  0.527000  10.616965       14.759840        5.214750 # H1  
99   25   2  0.527000  11.545641       13.564670        5.182790 # H2  
100  25   3 -1.054000  10.854754       13.996663        4.808254 # M1  
101  26   1  0.000000  15.289127       13.383782        8.183565 # O1  
102  26   2  0.527000  14.393271       13.720157        8.160624 # H1  
103  26   2  0.527000  15.187363       12.434893        8.257621 # H2  
104  26   3 -1.054000  15.199732       13.328896        8.188145 # M1  
105  27   1  0.000000  14.352913       16.114330        4.496445 # O1  
106  27   2  0.527000  14.085852       15.198551        4.417327 # H1  
107  27   2  0.527000  15.307687       16.081580        4.556156 # H2  
108  27   3 -1.054000  14.414538       16.029333        4.494706 # M1  
109  28   1  0.000000  26.355462        7.528929       18.449073 # O1  
110  28   2  0.527000  26.814002        8.368857       18.471290 # H1  
111  28   2  0.527000  26.845783        7.004500       17.815994 # H2  
112  28   3 -1.054000  26.440488        7.557201       18.394335 # M1  
113  29   1  0.000000   4.798565       23.993321       32.434930 # O1  
114  29   2  0.527000   5.526498       24.580091       32.229880 # H1  
115  29   2  0.527000   4.027205       24.560084       32.438715 # H2  
116  29   3 -1.054000   4.794674       24.096687       32.416895 # M1  
117  30   1  0.000000   2.131113        2.415339       35.571477 # O1
118  30   2  0.527000   1.818736        3.214023       35.146325 # H1
119  30   2  0.527000   2.999260        2.644021       35.903526 # H2
120  30   3 -1.054000   2.180914        2.507399       35.563135 # M1
121  31   1  0.000000  10.621897       11.641497        0.608960 # O1  
122  31   2  0.527000   9.874698       12.239744        0.603853 # H1
123  31   2  0.527000  11.388385       12.214844        0.609024 # H2  
124  31   3 -1.054000  10.623625       11.746482        0.608508 # M1  
125  32   1  0.000000  21.079935       13.737402       11.564273 # O1  
126  32   2  0.527000  20.552526       13.243234       10.936683 # H1  
127  32   2  0.527000  21.734230       14.185118       11.027915 # H2  
128  32   3 -1.054000  21.091305       13.733239       11.459973 # M1  
129  33   1  0.000000  29.356485       36.092644       29.146027 # O1  
130  33   2  0.527000  29.362496       35.978164       28.195717 # H1  
131  33   2  0.527000  29.736009       35.283037       29.487684 # H2  
132  33   3 -1.054000  29.391032       36.009838       29.091486 # M1  
133  34   1  0.000000   6.229283       32.684317       28.224791 # O1  
134  34   2  0.527000   5.457813       33.166315       28.522689 # H1  
135  34   2  0.527000   6.880232       33.362090       28.042804 # H2  
136  34   3 -1.054000   6.218483       32.788242       28.235178 # M1  
137  35   1  0.000000   8.488100       14.065855       20.299590 # O1  
138  35   2  0.527000   8.289458       13.132010       20.368190 # H1  
139  35   2  0.527000   7.647159       14.501028       20.439857 # H2  
140  35   3 -1.054000   8.394945       14.021170       20.318306 # M1  
141  36   1  0.000000  34.539933        5.886102       14.279291 # O1  
142  36   2  0.527000  34.974602        5.244939       13.716969 # H1  
143  36   2  0.527000  35.073483        6.676716       14.198769 # H2  
144  36   3 -1.054000  34.626694        5.899494       14.221687 # M1  
145  37   1  0.000000  35.379752        9.244644       17.988023 # O1  
146  37   2  0.527000  35.891995        8.443975       17.875030 # H1  
147  37   2  0.527000  34.535812        8.944048       18.325126 # H2  
148  37   3 -1.054000  35.350029        9.145961       18.008105 # M1  
149  38   1  0.000000  27.895927       26.654721       24.589924 # O1  
150  38   2  0.527000  27.342609       26.590179       25.368324 # H1  
151  38   2  0.527000  27.589549       25.950458       24.018631 # H2  
152  38   3 -1.054000  27.818891       26.585830       24.608483 # M1  
153  39   1  0.000000  23.365422        8.289012       35.257253 # O1  
154  39   2  0.527000  23.193881        9.220310       35.396854 # H1  
155  39   2  0.527000  23.894188        8.026786       36.010828 # H2  
156  39   3 -1.054000  23.397433        8.348966       35.337289 # M1  
157  40   1  0.000000  20.390861       21.587265       10.340426 # O1  
158  40   2  0.527000  19.744626       22.176022        9.950584 # H1  
159  40   2  0.527000  20.344494       20.793410        9.807626 # H2  
160  40   3 -1.054000  20.328798       21.568887       10.257749 # M1  
161  41   1  0.000000   0.848462        9.287131       29.588864 # O1
162  41   2  0.527000   0.314983       10.081883       29.589161 # H1  
163  41   2  0.527000   0.339206        8.656061       30.097431 # H2
164  41   3 -1.054000   0.755024        9.301798       29.634463 # M1
165  42   1  0.000000  14.165548       33.279271       26.011575 # O1  
166  42   2  0.527000  14.838836       33.829655       25.611585 # H1  
167  42   2  0.527000  14.275568       32.424540       25.594967 # H2  
168  42   3 -1.054000  14.235739       33.251999       25.938401 # M1  
169  43   1  0.000000  21.789582        1.205665       25.041966 # O1  
170  43   2  0.527000  22.444812        0.525082       25.195953 # H1  
171  43   2  0.527000  22.300498        2.000825       24.890585 # H2  
172  43   3 -1.054000  21.894078        1.215932       25.042200 # M1  
173  44   1  0.000000  19.510266       29.101543        7.162588 # O1  
174  44   2  0.527000  18.565752       29.006955        7.039386 # H1  
175  44   2  0.527000  19.648125       30.045097        7.245840 # H2  
176  44   3 -1.054000  19.437983       29.177617        7.159008 # M1  
177  45   1  0.000000  17.183470       16.825132       21.908611 # O1  
178  45   2  0.527000  16.274512       16.561445       22.051775 # H1  
179  45   2  0.527000  17.163439       17.781651       21.938639 # H2  
180  45   3 -1.054000  17.100225       16.887215       21.924131 # M1  
181  46   1  0.000000  30.835117       14.086632       24.011899 # O1  
182  46   2  0.527000  31.188897       13.216733       23.826572 # H1  
183  46   2  0.527000  31.607334       14.636750       24.143361 # H2  
184  46   3 -1.054000  30.936016       14.057977       24.007072 # M1  
185  47   1  0.000000  10.445631        2.064042        8.618261 # O1
186  47   2  0.527000   9.745233        1.804795        8.019541 # H1
187  47   2  0.527000  10.846585        2.827281        8.202409 # H2
188  47   3 -1.054000  10.418798        2.109204        8.527347 # M1
189  48   1  0.000000  25.004769       25.049026        5.377698 # O1  
190  48   2  0.527000  24.699742       25.947408        5.504582 # H1  
191  48   2  0.527000  24.476584       24.716491        4.651975 # H2  
192  48   3 -1.054000  24.930106       25.099731        5.324037 # M1  
193  49   1  0.000000  32.027742       26.902763       22.795762 # O1  
194  49   2  0.527000  32.045012       25.996165       22.489147 # H1  
195  49   2  0.527000  31.392506       27.336680       22.226180 # H2  
196  49   3 -1.054000  31.972367       26.860407       22.717247 # M1  
197  50   1  0.000000   1.327825        5.828843       10.390142 # O1
198  50   2  0.527000   2.132156        5.408310       10.086109 # H1
199  50   2  0.527000   0.647767        5.167720       10.261038 # H2
200  50   3 -1.054000   1.338961        5.731918       10.351329 # M1
201  51   1  0.000000  18.560481       12.930529        1.854141 # O1  
202  51   2  0.527000  18.092659       12.655740        2.642725 # H1  
203  51   2  0.527000  18.349612       12.260229        1.204170 # H2  
204  51   3 -1.054000  18.499665       12.845841        1.866562 # M1  
205  52   1  0.000000   7.918583        5.610871       15.344674 # O1
206  52   2  0.527000   7.356309        4.944882       14.949027 # H1
207  52   2  0.527000   7.712626        6.413920       14.866212 # H2
208  52   3 -1.054000   7.849743        5.623153       15.266347 # M1
209  53   1  0.000000  17.559485       18.742679       34.666530 # O1  
210  53   2  0.527000  16.866295       19.371208       34.868199 # H1  
211  53   2  0.527000  18.359359       19.154476       34.993420 # H2  
212  53   3 -1.054000  17.569045       18.835901       34.713894 # M1  
213  54   1  0.000000  25.358062       15.265107       17.603088 # O1  
214  54   2  0.527000  24.670927       14.797139       17.128659 # H1  
215  54   2  0.527000  26.171281       14.843490       17.325338 # H2  
216  54   3 -1.054000  25.369360       15.185392       17.535686 # M1  
217  55   1  0.000000  19.247784       22.827885       36.994486 # O1  
218  55   2  0.527000  19.613654       22.215239       37.632479 # H1  
219  55   2  0.527000  19.229557       22.336645       36.173156 # H2  
220  55   3 -1.054000  19.278936       22.728967       36.978057 # M1  
221  56   1  0.000000  37.541370       32.239086       31.151128 # O1  
222  56   2  0.527000  38.000888       33.058670       31.333766 # H1  
223  56   2  0.527000  37.101273       32.022390       31.973070 # H2  
224  56   3 -1.054000  37.543111       32.293110       31.241147 # M1  
225  57   1  0.000000  11.379026       31.421630       25.954896 # O1  
226  57   2  0.527000  12.257814       31.127964       25.714640 # H1  
227  57   2  0.527000  11.489446       32.343350       26.188285 # H2  
228  57   3 -1.054000  11.467668       31.477909       25.954280 # M1  
229  58   1  0.000000  13.689586       24.495972        7.500358 # O1  
230  58   2  0.527000  14.279969       25.246187        7.570050 # H1  
231  58   2  0.527000  13.875746       23.970961        8.278778 # H2  
232  58   3 -1.054000  13.759171       24.516152        7.576356 # M1  
233  59   1  0.000000  11.210295       24.171637        7.467895 # O1  
234  59   2  0.527000  10.991555       24.867697        8.087478 # H1  
235  59   2  0.527000  11.722768       23.546423        7.980447 # H2  
236  59   3 -1.054000  11.236616       24.177985        7.569344 # M1  
237  60   1  0.000000  16.477686       23.113200       17.929619 # O1  
238  60   2  0.527000  16.979417       23.917541       18.062031 # H1  
239  60   2  0.527000  15.931101       23.294425       17.165007 # H2  
240  60   3 -1.054000  16.473667       23.201515       17.872969 # M1  
241  61   1  0.000000  37.125771       36.608815        1.718245 # O1  
242  61   2  0.527000  37.538475       37.198822        1.087532 # H1  
243  61   2  0.527000  36.188621       36.784234        1.633338 # H2  
244  61   3 -1.054000  37.078776       36.677403        1.654119 # M1  
245  62   1  0.000000   3.542760       27.691638        2.304060 # O1
246  62   2  0.527000   3.191778       28.185919        1.563298 # H1
247  62   2  0.527000   4.422770       28.045370        2.433238 # H2
248  62   3 -1.054000   3.590165       27.767627        2.249257 # M1
249  63   1  0.000000   7.954623        7.783010        4.237372 # O1
250  63   2  0.527000   7.464281        6.960981        4.229346 # H1
251  63   2  0.527000   7.281772        8.463682        4.251148 # H2
252  63   3 -1.054000   7.850391        7.770343        4.237887 # M1
253  64   1  0.000000   4.579641       29.906799        0.865339 # O1
254  64   2  0.527000   4.533918       30.712772        0.350996 # H1
255  64   2  0.527000   5.424396       29.521347        0.632861 # H2
256  64   3 -1.054000   4.651241       29.944481        0.798417 # M1
257  65   1  0.000000  35.286787        5.688221       10.170258 # O1
258  65   2  0.527000  34.506377        5.150597       10.304980 # H1  
259  65   2  0.527000  34.956418        6.585849       10.133497 # H2
260  65   3 -1.054000  35.187252        5.720481       10.179036 # M1  
261  66   1  0.000000  15.038713       21.441537       16.045983 # O1  
262  66   2  0.527000  15.910782       21.131797       16.290500 # H1  
263  66   2  0.527000  14.456920       21.067515       16.707689 # H2  
264  66   3 -1.054000  15.064724       21.380266       16.127188 # M1  
265  67   1  0.000000  28.274392        8.484383       10.240450 # O1  
266  67   2  0.527000  28.114724        7.738400        9.662310 # H1
267  67   2  0.527000  28.114220        9.252018        9.691530 # H2
268  67   3 -1.054000  28.245731        8.486324       10.139456 # M1  
269  68   1  0.000000  22.273115       33.893102        4.648190 # O1  
270  68   2  0.527000  21.509592       33.318450        4.593053 # H1  
271  68   2  0.527000  21.922123       34.729997        4.952561 # H2  
272  68   3 -1.054000  22.173245       33.916601        4.670523 # M1  
273  69   1  0.000000  24.698985       28.040872       15.824781 # O1  
274  69   2  0.527000  25.461501       28.078068       16.402202 # H1  
275  69   2  0.527000  24.966375       27.461670       15.111157 # H2  
276  69   3 -1.054000  24.791273       27.992304       15.812576 # M1  
277  70   1  0.000000  11.444327       24.419923       30.083811 # O1  
278  70   2  0.527000  12.259847       24.892186       29.916106 # H1  
279  70   2  0.527000  11.670175       23.498445       29.956917 # H2  
280  70   3 -1.054000  11.537642       24.379670       30.057413 # M1  
281  71   1  0.000000  12.678695        4.780235       12.498873 # O1  
282  71   2  0.527000  13.474253        4.859717       11.972565 # H1  
283  71   2  0.527000  12.828824        5.355395       13.249129 # H2  
284  71   3 -1.054000  12.763437        4.838897       12.518941 # M1  
285  72   1  0.000000  25.787822       10.750957       21.278454 # O1  
286  72   2  0.527000  24.897679       10.458377       21.082817 # H1  
287  72   2  0.527000  26.209158        9.988707       21.675545 # H2  
288  72   3 -1.054000  25.745813       10.656436       21.296506 # M1  
289  73   1  0.000000   2.207254       21.514377       17.349126 # O1  
290  73   2  0.527000   2.651656       21.869897       18.118765 # H1  
291  73   2  0.527000   1.477764       22.114550       17.194634 # H2  
292  73   3 -1.054000   2.181707       21.600015       17.404249 # M1  
293  74   1  0.000000  32.300997       21.669781       28.272742 # O1  
294  74   2  0.527000  32.848543       22.272655       27.769782 # H1  
295  74   2  0.527000  32.638069       20.800803       28.054821 # H2  
296  74   3 -1.054000  32.380266       21.645936       28.208145 # M1  
297  75   1  0.000000  11.463240       27.057668        5.331004 # O1  
298  75   2  0.527000  11.867758       26.231740        5.065602 # H1  
299  75   2  0.527000  10.900989       27.297157        4.594289 # H2  
300  75   3 -1.054000  11.449106       27.005118        5.241206 # M1  
301  76   1  0.000000   7.397940       35.334966       24.865240 # O1  
302  76   2  0.527000   7.803317       34.888528       24.121873 # H1  
303  76   2  0.527000   6.912223       34.648104       25.321890 # H2  
304  76   3 -1.054000   7.390741       35.233413       24.839547 # M1  
305  77   1  0.000000  32.225358       16.299245        0.418044 # O1  
306  77   2  0.527000  32.525093       15.706074        1.106911 # H1  
307  77   2  0.527000  31.501167       15.834132       -0.000821 # H2  
308  77   3 -1.054000  32.187323       16.204414        0.442238 # M1  
309  78   1  0.000000  25.973376        9.749988       32.394547 # O1  
310  78   2  0.527000  25.290493        9.836466       33.059695 # H1  
311  78   2  0.527000  25.656694        9.057922       31.814039 # H2  
312  78   3 -1.054000  25.883807        9.695722       32.402131 # M1  
313  79   1  0.000000   7.802523       18.898303        9.215077 # O1
314  79   2  0.527000   8.699075       18.592502        9.077559 # H1
315  79   2  0.527000   7.466874       18.347420        9.922254 # H2
316  79   3 -1.054000   7.852785       18.821537        9.266123 # M1
317  80   1  0.000000  15.103336        4.257713        7.894627 # O1
318  80   2  0.527000  16.032170        4.453579        7.771600 # H1
319  80   2  0.527000  14.666863        5.106077        7.817160 # H2
320  80   3 -1.054000  15.147456        4.351285        7.876661 # M1
321  81   1  0.000000   5.600930       15.215782       24.446121 # O1  
322  81   2  0.527000   5.118083       14.738959       23.771044 # H1  
323  81   2  0.527000   5.703559       16.098208       24.089719 # H2  
324  81   3 -1.054000   5.566860       15.252128       24.353692 # M1  
325  82   1  0.000000  34.181288       21.025864       12.839734 # O1  
326  82   2  0.527000  34.085509       21.187455       13.778321 # H1  
327  82   2  0.527000  34.240341       21.898480       12.450781 # H2  
328  82   3 -1.054000  34.177997       21.118538       12.888986 # M1  
329  83   1  0.000000   0.584621       29.777109       33.300542 # O1  
330  83   2  0.527000  -0.002052       30.533442       33.303015 # H1  
331  83   2  0.527000  -0.000463       29.019543       33.302312 # H2  
332  83   3 -1.054000   0.479621       29.776998       33.300923 # M1  
333  84   1  0.000000  30.697216        3.958647       18.049325 # O1  
334  84   2  0.527000  31.548031        3.896801       17.615137 # H1  
335  84   2  0.527000  30.445553        4.877279       17.954397 # H2  
336  84   3 -1.054000  30.750905        4.035422       18.001912 # M1  
337  85   1  0.000000   5.339616        8.721549        6.156063 # O1
338  85   2  0.527000   6.289022        8.612599        6.210727 # H1
339  85   2  0.527000   4.993845        7.829327        6.180826 # H2
340  85   3 -1.054000   5.393707        8.631836        6.163181 # M1
341  86   1  0.000000  25.368559       12.006136       11.646301 # O1  
342  86   2  0.527000  25.744463       11.626674       12.440616 # H1  
343  86   2  0.527000  25.312882       12.943633       11.831314 # H2  
344  86   3 -1.054000  25.397254       12.056141       11.734057 # M1  
345  87   1  0.000000   3.386892       30.322283       30.097591 # O1  
346  87   2  0.527000   3.209060       29.505019       29.632095 # H1  
347  87   2  0.527000   2.551872       30.553257       30.504559 # H2  
348  87   3 -1.054000   3.296132       30.269746       30.092346 # M1  
349  88   1  0.000000  -0.000243        2.223725       12.936337 # O1  
350  88   2  0.527000   0.022181        3.180661       12.937651 # H1
351  88   2  0.527000   0.896550        1.962370       13.145349 # H2
352  88   3 -1.054000   0.082127        2.286055       12.955184 # M1
353  89   1  0.000000   1.985270        5.750172       32.115493 # O1
354  89   2  0.527000   1.087553        5.433177       32.016244 # H1
355  89   2  0.527000   2.528463        4.968788       32.012486 # H2
356  89   3 -1.054000   1.953501        5.651748       32.097369 # M1
357  90   1  0.000000   5.352185        2.316944       25.636494 # O1
358  90   2  0.527000   4.860677        1.587774       25.258390 # H1
359  90   2  0.527000   5.587103        2.862755       24.886072 # H2
360  90   3 -1.054000   5.329192        2.300513       25.535369 # M1
361  91   1  0.000000  20.617698       33.187732       34.630047 # O1  
362  91   2  0.527000  20.216345       33.940119       34.195236 # H1  
363  91   2  0.527000  21.393344       32.992335       34.104287 # H2  
364  91   3 -1.054000  20.651237       33.237643       34.543972 # M1  
365  92   1  0.000000  35.094369       12.418379       27.957452 # O1  
366  92   2  0.527000  36.046275       12.511244       27.918938 # H1  
367  92   2  0.527000  34.952654       11.515912       28.243284 # H2  
368  92   3 -1.054000  35.166969       12.345832       27.979614 # M1  
369  93   1  0.000000  32.272140        4.545781       23.664542 # O1  
370  93   2  0.527000  31.334445        4.737746       23.654101 # H1  
371  93   2  0.527000  32.327413        3.634820       23.953204 # H2  
372  93   3 -1.054000  32.193068        4.481353       23.689473 # M1  
373  94   1  0.000000  21.524804        1.648835       21.900686 # O1  
374  94   2  0.527000  21.995695        2.479324       21.831538 # H1  
375  94   2  0.527000  22.213474        0.986789       21.961181 # H2  
376  94   3 -1.054000  21.628710        1.663929       21.899911 # M1  
377  95   1  0.000000   5.243903       25.901849        2.384303 # O1
378  95   2  0.527000   4.628569       25.910875        3.117456 # H1
379  95   2  0.527000   5.954109       26.481397        2.659917 # H2
380  95   3 -1.054000   5.252405       25.954590        2.474697 # M1
381  96   1  0.000000   4.861203        6.403467       25.126621 # O1
382  96   2  0.527000   5.467830        7.001986       25.562522 # H1
383  96   2  0.527000   4.138417        6.301296       25.745793 # H2
384  96   3 -1.054000   4.850794        6.447944       25.221165 # M1
385  97   1  0.000000  35.718502       19.809790       16.176294 # O1  
386  97   2  0.527000  34.987668       20.015077       15.593225 # H1  
387  97   2  0.527000  35.353319       19.193265       16.810935 # H2  
388  97   3 -1.054000  35.620290       19.772940       16.180916 # M1  
389  98   1  0.000000  15.004185       33.276694       33.690433 # O1  
390  98   2  0.527000  15.791060       33.311980       33.146546 # H1  
391  98   2  0.527000  15.323803       33.034068       34.559461 # H2  
392  98   3 -1.054000  15.103337       33.258115       33.719569 # M1  
393  99   1  0.000000  25.271830       37.433877       20.533418 # O1  
394  99   2  0.527000  26.037895       38.002627       20.610224 # H1  
395  99   2  0.527000  24.529490       38.002084       20.739094 # H2  
396  99   3 -1.054000  25.273956       37.535758       20.558731 # M1  
397  100  1  0.000000  34.049544       27.860643       24.280714 # O1  
398  100  2  0.527000  33.562936       28.275136       23.568226 # H1  
399  100  2  0.527000  33.436453       27.226900       24.653167 # H2  
400  100  3 -1.054000  33.951002       27.840996       24.250244 # M1  
401  101  1  0.000000   6.613810       18.873526       18.364725 # O1  
402  101  2  0.527000   7.558426       19.015863       18.304125 # H1  
403  101  2  0.527000   6.517496       17.922860       18.421184 # H2  