LAMMPS data file for the TIP4P-ST water model

 8000 atoms
 0 bonds
 0 angles
 0 dihedrals
 0 impropers

 3 atom types
 0 bond types
 0 angle types
 0 dihedral types
 0 improper types

0.000000 39.135734 xlo xhi
0.000000 39.135734 ylo yhi
0.000000 39.135734 zlo zhi

Masses

  1   15.999000  # O
  2    1.008000  # H
  3    1.e-16    # M

# Pair Coeffs
#
# 1  O1
# 2  H1 H2
# 3  M1

# Bond Coeffs
#
# 1    500.000000   0.957200   # O-H
# 2    500.000000   0.098900   # O-M

# Angle Coeffs
#
# 1  H1-M1-H2
# 2  H1-M1-O1
# 3  50.00000  104.52000    H1-O1-H2
# 4  H1-O1-M1
# 5  H2-M1-O1
# 6  H2-O1-M1
# 7  M1-H1-O1
# 8  M1-H2-O1

 Atoms # full

1    1    1  0.000000  24.725205       14.868450       36.525425 # O1  
2    1    2  0.521720  25.470131       14.847719       35.924688 # H1  
3    1    2  0.521720  24.902749       15.611338       37.102337 # H2  
4    1    3 -1.043440  24.803064       14.929402       36.523414 # M1  
5    2    1  0.000000  37.119134        8.436830       23.565299 # O1  
6    2    2  0.521720  36.549679        9.204910       23.610094 # H1  
7    2    2  0.521720  38.006704        8.794896       23.580751 # H2  
8    2    3 -1.043440  37.145983        8.531880       23.570384 # M1  
9    3    1  0.000000   2.964313       34.209957        9.364385 # O1
10   3    2  0.521720   3.912814       34.338444        9.356226 # H1
11   3    2  0.521720   2.850749       33.259609        9.351177 # H2
12   3    3 -1.043440   3.034784       34.140589        9.362581 # M1
13   4    1  0.000000   5.238103       36.753162        9.105464 # O1
14   4    2  0.521720   5.687470       35.988239        9.464899 # H1
15   4    2  0.521720   4.368813       36.430894        8.867325 # H2
16   4    3 -1.043440   5.202660       36.661400        9.115701 # M1
17   5    1  0.000000  30.874807       35.734164       17.611620 # O1  
18   5    2  0.521720  30.775511       36.684855       17.561053 # H1  
19   5    2  0.521720  31.817249       35.595999       17.706199 # H2  
20   5    3 -1.043440  30.945971       35.802743       17.615334 # M1  
21   6    1  0.000000  10.126278        0.561059       26.939428 # O1  
22   6    2  0.521720  11.056248        0.618148       27.158809 # H1  
23   6    2  0.521720   9.911742        1.421030       26.577965 # H2  
24   6    3 -1.043440  10.186663        0.638462       26.927436 # M1  
25   7    1  0.000000  17.555142        1.593020       21.615486 # O1  
26   7    2  0.521720  16.673670        1.645431       21.246039 # H1  
27   7    2  0.521720  17.722609        0.654808       21.704610 # H2  
28   7    3 -1.043440  17.494878        1.518256       21.591826 # M1  
29   8    1  0.000000  29.080343       31.250347       18.952085 # O1  
30   8    2  0.521720  30.024242       31.406430       18.982475 # H1  
31   8    2  0.521720  28.728643       31.999200       18.470674 # H2  
32   8    3 -1.043440  29.130326       31.326726       18.914017 # M1  
33   9    1  0.000000   7.404748       22.349206       18.750793 # O1  
34   9    2  0.521720   8.199681       21.874879       18.507224 # H1  
35   9    2  0.521720   7.672251       23.267865       18.777965 # H2  
36   9    3 -1.043440   7.494420       22.386708       18.732529 # M1  
37   10   1  0.000000  35.126144       27.960238       34.688885 # O1  
38   10   2  0.521720  35.381313       27.096070       35.011891 # H1  
39   10   2  0.521720  35.954986       28.416315       34.543118 # H2  
40   10   3 -1.043440  35.217638       27.925794       34.703844 # M1  
41   11   1  0.000000   5.779589        3.855944       30.624165 # O1
42   11   2  0.521720   6.399484        3.393403       31.188095 # H1
43   11   2  0.521720   5.085210        3.218578       30.457333 # H2
44   11   3 -1.043440   5.773303        3.763109       30.657681 # M1
45   12   1  0.000000  11.413242       17.748930       30.258966 # O1  
46   12   2  0.521720  12.354285       17.581821       30.206589 # H1  
47   12   2  0.521720  11.345435       18.617355       30.655793 # H2  
48   12   3 -1.043440  11.486945       17.808123       30.288039 # M1  
49   13   1  0.000000  15.458548       25.229426       19.330615 # O1  
50   13   2  0.521720  16.345878       25.246766       19.689188 # H1  
51   13   2  0.521720  15.416968       25.993766       18.755910 # H2  
52   13   3 -1.043440  15.529931       25.295402       19.312373 # M1  
53   14   1  0.000000  29.320828       10.905231       13.749271 # O1  
54   14   2  0.521720  28.740196       10.373374       14.293538 # H1  
55   14   2  0.521720  28.858381       11.737004       13.646668 # H2  
56   14   3 -1.043440  29.232789       10.930544       13.786548 # M1  
57   15   1  0.000000  21.929917       10.579183       11.155017 # O1  
58   15   2  0.521720  21.949695       10.061144       11.959676 # H1  
59   15   2  0.521720  22.032222        9.936379       10.453184 # H2  
60   15   3 -1.043440  21.940221       10.481204       11.163695 # M1  
61   16   1  0.000000  19.596183       23.564901        3.769783 # O1  
62   16   2  0.521720  18.912369       23.094079        4.246182 # H1  
63   16   2  0.521720  19.149576       23.927193        3.004591 # H2  
64   16   3 -1.043440  19.500772       23.555741        3.745408 # M1  
65   17   1  0.000000  30.158009        6.121616       36.503285 # O1  
66   17   2  0.521720  30.642273        5.463890       36.004170 # H1  
67   17   2  0.521720  30.296295        5.878100       37.418604 # H2  
68   17   3 -1.043440  30.210554        6.045549       36.538414 # M1  
69   18   1  0.000000  32.016261       20.009661       32.049850 # O1  
70   18   2  0.521720  32.598767       19.251059       32.011896 # H1  
71   18   2  0.521720  31.211509       19.674743       32.445368 # H2  
72   18   3 -1.043440  31.997503       19.917365       32.080030 # M1  
73   19   1  0.000000  15.140424       28.924998        3.572114 # O1  
74   19   2  0.521720  15.202293       28.158695        3.001867 # H1  
75   19   2  0.521720  14.767915       29.608875        3.015534 # H2  
76   19   3 -1.043440  15.114205       28.918041        3.477007 # M1  
77   20   1  0.000000  32.170624        7.923316        7.987178 # O1
78   20   2  0.521720  31.720822        7.078416        7.994503 # H1
79   20   2  0.521720  31.504781        8.552092        8.265609 # H2
80   20   3 -1.043440  32.076461        7.905074        8.011296 # M1
81   21   1  0.000000   0.389597       31.026403       29.920047 # O1  
82   21   2  0.521720   0.758246       31.037929       29.036760 # H1  
83   21   2  0.521720   0.404912       30.103762       30.174468 # H2  
84   21   3 -1.043440   0.422005       30.949502       29.866969 # M1  
85   22   1  0.000000   2.095604       18.767653        0.228498 # O1
86   22   2  0.521720   1.842934       17.891690        0.520180 # H1
87   22   2  0.521720   1.285922       19.276648        0.268140 # H2
88   22   3 -1.043440   2.005938       18.736680        0.256462 # M1
89   23   1  0.000000   4.692186       36.278672       18.631789 # O1  
90   23   2  0.521720   4.211373       35.471795       18.816178 # H1  
91   23   2  0.521720   5.598103       35.995315       18.508284 # H2  
92   23   3 -1.043440   4.728066       36.186654       18.636928 # M1  
93   24   1  0.000000  31.651982        2.291905       30.809295 # O1  
94   24   2  0.521720  31.789507        1.567556       30.198856 # H1  
95   24   2  0.521720  32.295196        2.146466       31.503093 # H2  
96   24   3 -1.043440  31.717879        2.218492       30.816331 # M1  
97   25   1  0.000000  10.804571       13.969800        4.757359 # O1  
98   25   2  0.521720  10.633308       14.771150        5.252069 # H1  
99   25   2  0.521720  11.546178       13.564297        5.206600 # H2  
100  25   3 -1.043440  10.852710       14.003210        4.837031 # M1  
101  26   1  0.000000  15.285797       13.381147        8.183067 # O1  
102  26   2  0.521720  14.390099       13.717970        8.160573 # H1  
103  26   2  0.521720  15.183589       12.432190        8.255631 # H2  
104  26   3 -1.043440  15.201571       13.329481        8.187293 # M1  
105  27   1  0.000000  14.353637       16.110814        4.489942 # O1  
106  27   2  0.521720  14.077535       15.197576        4.412516 # H1  
107  27   2  0.521720  15.308156       16.068854        4.547937 # H2  
108  27   3 -1.043440  14.410897       16.030193        4.488302 # M1  
109  28   1  0.000000  26.347698        7.499244       18.422070 # O1  
110  28   2  0.521720  26.823522        8.329736       18.432356 # H1  
111  28   2  0.521720  26.875360        6.927225       17.864758 # H2  
112  28   3 -1.043440  26.432395        7.521060       18.375899 # M1  
113  29   1  0.000000   4.658340       23.899969       32.397326 # O1  
114  29   2  0.521720   5.293778       24.592201       32.214942 # H1  
115  29   2  0.521720   3.812871       24.348471       32.413448 # H2  
116  29   3 -1.043440   4.640613       23.996250       32.383293 # M1  
117  30   1  0.000000   2.175796        2.343226       35.615063 # O1
118  30   2  0.521720   1.851821        3.135427       35.186474 # H1
119  30   2  0.521720   3.040856        2.585722       35.945365 # H2
120  30   3 -1.043440   2.221465        2.430557       35.606767 # M1
121  31   1  0.000000  10.631749       11.617015        0.596604 # O1  
122  31   2  0.521720   9.879725       12.209146        0.588078 # H1
123  31   2  0.521720  11.393548       12.196577        0.596675 # H2  
124  31   3 -1.043440  10.632574       11.715909        0.595890 # M1  
125  32   1  0.000000  21.084819       13.735876       11.560941 # O1  
126  32   2  0.521720  20.554253       13.241203       10.936416 # H1  
127  32   2  0.521720  21.738555       14.180416       11.021271 # H2  
128  32   3 -1.043440  21.095214       13.731645       11.462679 # M1  
129  33   1  0.000000  29.366703       36.091889       29.146261 # O1  
130  33   2  0.521720  29.366399       35.978022       28.195858 # H1  
131  33   2  0.521720  29.751195       35.283284       29.484720 # H2  
132  33   3 -1.043440  29.399129       36.014030       29.094611 # M1  
133  34   1  0.000000   6.227227       32.662403       28.233366 # O1  
134  34   2  0.521720   5.456938       33.146863       28.530325 # H1  
135  34   2  0.521720   6.880255       33.338151       28.051294 # H2  
136  34   3 -1.043440   6.217330       32.760327       28.243063 # M1  
137  35   1  0.000000   8.508090       14.100963       20.270359 # O1  
138  35   2  0.521720   8.408885       13.150221       20.320151 # H1  
139  35   2  0.521720   7.622018       14.441484       20.393458 # H2  
140  35   3 -1.043440   8.424930       14.049459       20.284952 # M1  
141  36   1  0.000000  34.560382        5.854971       14.274812 # O1  
142  36   2  0.521720  34.995922        5.231875       13.693188 # H1  
143  36   2  0.521720  35.083961        6.653365       14.206519 # H2  
144  36   3 -1.043440  34.641334        5.869767       14.219957 # M1  
145  37   1  0.000000  35.386136        9.201111       17.983177 # O1  
146  37   2  0.521720  35.918758        8.412387       17.880909 # H1  
147  37   2  0.521720  34.536929        8.879626       18.286040 # H2  
148  37   3 -1.043440  35.359415        9.107407       18.000108 # M1  
149  38   1  0.000000  27.885020       26.583646       24.713124 # O1  
150  38   2  0.521720  27.349705       26.556084       25.506162 # H1  
151  38   2  0.521720  27.532529       25.885489       24.161256 # H2  
152  38   3 -1.043440  27.810087       26.522393       24.733479 # M1  
153  39   1  0.000000  23.367804        8.290013       35.258051 # O1  
154  39   2  0.521720  23.203189        9.222166       35.400260 # H1  
155  39   2  0.521720  23.894264        8.021665       36.011085 # H2  
156  39   3 -1.043440  23.398344        8.346040       35.333612 # M1  
157  40   1  0.000000  20.398063       21.577034       10.329634 # O1  
158  40   2  0.521720  19.754036       22.170183        9.942808 # H1  
159  40   2  0.521720  20.346910       20.785134        9.794368 # H2  
160  40   3 -1.043440  20.339388       21.560259       10.251807 # M1  
161  41   1  0.000000   0.848452        9.288098       29.589087 # O1
162  41   2  0.521720   0.315295       10.083066       29.589436 # H1  
163  41   2  0.521720   0.338548        8.656939       30.096893 # H2
164  41   3 -1.043440   0.760415        9.301924       29.631977 # M1
165  42   1  0.000000  14.194101       33.281521       26.033052 # O1  
166  42   2  0.521720  14.861295       33.844103       25.639880 # H1  
167  42   2  0.521720  14.314219       32.432894       25.606865 # H2  
168  42   3 -1.043440  14.260552       33.257378       25.963896 # M1  
169  43   1  0.000000  21.673149        1.119693       25.076492 # O1  
170  43   2  0.521720  22.275342        0.400824       25.268380 # H1  
171  43   2  0.521720  22.242268        1.868298       24.897813 # H2  
172  43   3 -1.043440  21.772011        1.122203       25.077607 # M1  
173  44   1  0.000000  19.499349       29.104138        7.158808 # O1  
174  44   2  0.521720  18.553430       29.028313        7.033435 # H1  
175  44   2  0.521720  19.655392       30.044594        7.244965 # H2  
176  44   3 -1.043440  19.432681       29.177115        7.155498 # M1  
177  45   1  0.000000  17.188791       16.830072       21.787158 # O1  
178  45   2  0.521720  16.367699       16.369021       21.958833 # H1  
179  45   2  0.521720  16.959489       17.757687       21.843570 # H2  
180  45   3 -1.043440  17.100135       16.869451       21.806409 # M1  
181  46   1  0.000000  30.849153       14.075785       24.032552 # O1  
182  46   2  0.521720  31.216752       13.209869       23.855662 # H1  
183  46   2  0.521720  31.612491       14.639160       24.159650 # H2  
184  46   3 -1.043440  30.944607       14.050250       24.028350 # M1  
185  47   1  0.000000  10.462589        2.050804        8.605020 # O1
186  47   2  0.521720   9.740569        1.795601        8.030747 # H1
187  47   2  0.521720  10.848273        2.816720        8.179753 # H2
188  47   3 -1.043440  10.434201        2.093910        8.520656 # M1
189  48   1  0.000000  24.987783       25.063167        5.377661 # O1  
190  48   2  0.521720  24.689665       25.963671        5.505916 # H1  
191  48   2  0.521720  24.456509       24.735547        4.651958 # H2  
192  48   3 -1.043440  24.917780       25.111520        5.327235 # M1  
193  49   1  0.000000  32.059863       26.899763       22.809323 # O1  
194  49   2  0.521720  32.069330       25.993445       22.501542 # H1  
195  49   2  0.521720  31.425090       27.338846       22.243195 # H2  
196  49   3 -1.043440  32.007085       26.860327       22.735562 # M1  
197  50   1  0.000000   1.324833        5.830471       10.392892 # O1
198  50   2  0.521720   2.134713        5.418852       10.091405 # H1
199  50   2  0.521720   0.652524        5.161887       10.261636 # H2
200  50   3 -1.043440   1.336444        5.739299       10.356368 # M1
201  51   1  0.000000  18.568090       12.992011        1.866826 # O1  
202  51   2  0.521720  18.083351       12.749837        2.655883 # H1  
203  51   2  0.521720  18.363090       12.300500        1.237526 # H2  
204  51   3 -1.043440  18.509874       12.913206        1.880310 # M1  
205  52   1  0.000000   8.147896        5.846746       15.227250 # O1
206  52   2  0.521720   7.618646        5.109040       14.924076 # H1
207  52   2  0.521720   7.834379        6.593023       14.716359 # H2
208  52   3 -1.043440   8.076764        5.847469       15.158541 # M1
209  53   1  0.000000  17.603904       18.753816       34.671865 # O1  
210  53   2  0.521720  16.890655       19.361813       34.866407 # H1  
211  53   2  0.521720  18.387270       19.186154       35.011943 # H2  
212  53   3 -1.043440  17.609822       18.841623       34.716989 # M1  
213  54   1  0.000000  25.342739       15.265933       17.608636 # O1  
214  54   2  0.521720  24.651175       14.803425       17.135291 # H1  
215  54   2  0.521720  26.152391       14.839760       17.327441 # H2  
216  54   3 -1.043440  25.352706       15.190926       17.544951 # M1  
217  55   1  0.000000  19.261854       22.785872       36.994430 # O1  
218  55   2  0.521720  19.631075       22.177011       37.634113 # H1  
219  55   2  0.521720  19.250336       22.293716       36.173527 # H2  
220  55   3 -1.043440  19.292045       22.692943       36.979135 # M1  
221  56   1  0.000000  37.626942       32.175542       31.147173 # O1  
222  56   2  0.521720  37.992725       33.016117       31.422613 # H1  
223  56   2  0.521720  37.154916       31.855725       31.916029 # H2  
224  56   3 -1.043440  37.617974       32.219495       31.235314 # M1  
225  57   1  0.000000  11.393330       31.420388       25.928198 # O1  
226  57   2  0.521720  12.275765       31.132255       25.694708 # H1  
227  57   2  0.521720  11.495121       32.344368       26.156519 # H2  
228  57   3 -1.043440  11.476401       31.474055       25.927762 # M1  
229  58   1  0.000000  13.691684       24.498957        7.512513 # O1  
230  58   2  0.521720  14.280713       25.250829        7.575475 # H1  
231  58   2  0.521720  13.880829       23.979799        8.294133 # H2  
232  58   3 -1.043440  13.757364       24.518598        7.583798 # M1  
233  59   1  0.000000  11.230966       24.166920        7.485255 # O1  
234  59   2  0.521720  11.023459       24.852930        8.119732 # H1  
235  59   2  0.521720  11.749784       23.532091        7.979270 # H2  
236  59   3 -1.043440  11.257241       24.171240        7.580503 # M1  
237  60   1  0.000000  16.477590       23.091662       17.934669 # O1  
238  60   2  0.521720  16.946179       23.919398       18.041943 # H1  
239  60   2  0.521720  15.916318       23.230740       17.171869 # H2  
240  60   3 -1.043440  16.469767       23.173264       17.879341 # M1  
241  61   1  0.000000  37.127727       36.605684        1.715685 # O1  
242  61   2  0.521720  37.540186       37.196243        1.085328 # H1  
243  61   2  0.521720  36.190453       36.780230        1.630350 # H2  
244  61   3 -1.043440  37.083432       36.670261        1.655278 # M1  
245  62   1  0.000000   3.543192       27.693188        2.304197 # O1
246  62   2  0.521720   3.192648       28.188547        1.563948 # H1
247  62   2  0.521720   4.423586       28.045873        2.433620 # H2
248  62   3 -1.043440   3.587912       27.764765        2.252642 # M1
249  63   1  0.000000   7.951396        7.766938        4.240474 # O1
250  63   2  0.521720   7.446928        6.953465        4.242535 # H1
251  63   2  0.521720   7.290383        8.459239        4.236881 # H2
252  63   3 -1.043440   7.853026        7.756711        4.240345 # M1
253  64   1  0.000000   4.580338       29.907111        0.863687 # O1
254  64   2  0.521720   4.534699       30.713119        0.349391 # H1
255  64   2  0.521720   5.425031       29.521559        0.631149 # H2
256  64   3 -1.043440   4.647780       29.942599        0.800652 # M1
257  65   1  0.000000  35.241687        5.630649       10.168867 # O1
258  65   2  0.521720  34.435580        5.120722       10.248853 # H1  
259  65   2  0.521720  34.948190        6.541443       10.145529 # H2
260  65   3 -1.043440  35.148877        5.664483       10.173648 # M1  
261  66   1  0.000000  15.041060       21.461937       16.045720 # O1  
262  66   2  0.521720  15.916641       21.159445       16.286732 # H1  
263  66   2  0.521720  14.464641       21.080431       16.707857 # H2  
264  66   3 -1.043440  15.066310       21.404206       16.121948 # M1  
265  67   1  0.000000  28.255914        8.498436       10.231896 # O1  
266  67   2  0.521720  28.117119        7.732576        9.674737 # H1
267  67   2  0.521720  28.086116        9.246075        9.658803 # H2
268  67   3 -1.043440  28.229868        8.496898       10.136500 # M1  
269  68   1  0.000000  22.263680       33.904869        4.640147 # O1  
270  68   2  0.521720  21.507978       33.319891        4.585866 # H1  
271  68   2  0.521720  21.899470       34.741127        4.930415 # H2  
272  68   3 -1.043440  22.169156       33.926078        4.660065 # M1  
273  69   1  0.000000  24.696787       28.060496       15.827017 # O1  
274  69   2  0.521720  25.457290       28.076144       16.408068 # H1  
275  69   2  0.521720  24.961647       27.496751       15.100194 # H2  
276  69   3 -1.043440  24.783330       28.014235       15.814714 # M1  
277  70   1  0.000000  11.459882       24.412529       30.115186 # O1  
278  70   2  0.521720  12.260129       24.905234       29.933314 # H1  
279  70   2  0.521720  11.703294       23.497984       29.971702 # H2  
280  70   3 -1.043440  11.547970       24.376925       30.087725 # M1  
281  71   1  0.000000  12.683422        4.759573       12.475871 # O1  
282  71   2  0.521720  13.484117        4.869690       11.963043 # H1  
283  71   2  0.521720  12.812078        5.315861       13.244131 # H2  
284  71   3 -1.043440  12.761862        4.815819       12.497430 # M1  
285  72   1  0.000000  25.809464       10.737903       21.267386 # O1  
286  72   2  0.521720  24.919266       10.450599       21.064320 # H1  
287  72   2  0.521720  26.220820        9.975340       21.674222 # H2  
288  72   3 -1.043440  25.769049       10.649291       21.284584 # M1  
289  73   1  0.000000   2.195813       21.442195       17.381983 # O1  
290  73   2  0.521720   2.533399       21.813989       18.196867 # H1  
291  73   2  0.521720   1.449231       21.997059       17.156214 # H2  
292  73   3 -1.043440   2.161293       21.520407       17.431706 # M1  
293  74   1  0.000000  32.317015       21.713764       28.202683 # O1  
294  74   2  0.521720  32.838915       22.370148       27.741150 # H1  
295  74   2  0.521720  32.721635       20.878187       27.969607 # H2  
296  74   3 -1.043440  32.395216       21.698640       28.144056 # M1  
297  75   1  0.000000  11.476094       27.086281        5.319773 # O1  
298  75   2  0.521720  11.871087       26.258138        5.047027 # H1  
299  75   2  0.521720  10.940639       27.354234        4.572966 # H2  
300  75   3 -1.043440  11.464238       27.038999        5.233720 # M1  
301  76   1  0.000000   7.409444       35.353815       24.863699 # O1  
302  76   2  0.521720   7.819754       34.897705       24.128961 # H1  
303  76   2  0.521720   6.914915       34.674361       25.321973 # H2  
304  76   3 -1.043440   7.402335       35.257970       24.840365 # M1  
305  77   1  0.000000  32.228586       16.300124        0.418780 # O1  
306  77   2  0.521720  32.528520       15.707294        1.107854 # H1  
307  77   2  0.521720  31.504776       15.834475       -0.000146 # H2  
308  77   3 -1.043440  32.192810       16.210786        0.441581 # M1  
309  78   1  0.000000  25.968057        9.739124       32.386439 # O1  
310  78   2  0.521720  25.285769        9.828750       33.051781 # H1  
311  78   2  0.521720  25.649615        9.046153       31.807976 # H2  
312  78   3 -1.043440  25.883593        9.688200       32.393772 # M1  
313  79   1  0.000000   7.826703       18.909245        9.184975 # O1
314  79   2  0.521720   8.715579       18.573263        9.069883 # H1
315  79   2  0.521720   7.468364       18.396702        9.909629 # H2
316  79   3 -1.043440   7.871482       18.837627        9.236423 # M1
317  80   1  0.000000  15.097812        4.264500        7.884120 # O1
318  80   2  0.521720  16.027615        4.454825        7.759725 # H1
319  80   2  0.521720  14.666049        5.115116        7.804975 # H2
320  80   3 -1.043440  15.139848        4.352358        7.866940 # M1
321  81   1  0.000000   5.596707       15.212449       24.454810 # O1  
322  81   2  0.521720   5.112025       14.730439       23.784750 # H1  
323  81   2  0.521720   5.686566       16.095783       24.097210 # H2  
324  81   3 -1.043440   5.563383       15.246322       24.368073 # M1  
325  82   1  0.000000  32.459056       22.799303       13.910920 # O1  
326  82   2  0.521720  32.981646       22.852582       14.711102 # H1  
327  82   2  0.521720  32.823596       23.476194       13.340693 # H2  
328  82   3 -1.043440  32.533932       22.860931       13.930329 # M1  
329  83   1  0.000000   0.589384       29.800832       33.316812 # O1  
330  83   2  0.521720   0.012053       30.564323       33.315758 # H1  
331  83   2  0.521720  -0.004973       29.050519       33.316045 # H2  
332  83   3 -1.043440   0.490491       29.801944       33.316658 # M1  
333  84   1  0.000000  30.679513        4.000863       18.050723 # O1  
334  84   2  0.521720  31.534862        3.945263       17.624675 # H1  
335  84   2  0.521720  30.426286        4.919648       17.961610 # H2  
336  84   3 -1.043440  30.730333        4.073718       18.007242 # M1  
337  85   1  0.000000   5.293136        8.733269        6.111620 # O1
338  85   2  0.521720   6.244406        8.641928        6.166151 # H1
339  85   2  0.521720   4.963922        7.834827        6.137135 # H2
340  85   3 -1.043440   5.345639        8.649729        6.118376 # M1
341  86   1  0.000000  25.383291       12.011090       11.642411 # O1  
342  86   2  0.521720  25.766082       11.645772       12.440061 # H1  
343  86   2  0.521720  25.314373       12.949642       11.817344 # H2  
344  86   3 -1.043440  25.409783       12.059472       11.724500 # M1  
345  87   1  0.000000   3.395154       30.314789       30.095680 # O1  
346  87   2  0.521720   3.221222       29.493096       29.636551 # H1  
347  87   2  0.521720   2.557940       30.547152       30.497316 # H2  
348  87   3 -1.043440   3.309810       30.265048       30.090828 # M1  
349  88   1  0.000000  -0.000062        2.225381       12.946774 # O1  
350  88   2  0.521720   0.019970        3.182371       12.947530 # H1
351  88   2  0.521720   0.894606        1.966439       13.167566 # H2
352  88   3 -1.043440   0.077141        2.284298       12.965473 # M1
353  89   1  0.000000   2.277969        5.820451       32.386001 # O1
354  89   2  0.521720   1.340706        6.001866       32.316300 # H1
355  89   2  0.521720   2.351671        4.877778       32.237118 # H2
356  89   3 -1.043440   2.205082        5.756199       32.367552 # M1
357  90   1  0.000000   5.316123        2.305064       25.676258 # O1
358  90   2  0.521720   4.830668        1.578425       25.285668 # H1
359  90   2  0.521720   5.544473        2.866768       24.935598 # H2
360  90   3 -1.043440   5.294423        2.291143       25.580777 # M1
361  91   1  0.000000  20.615011       33.185107       34.632978 # O1  
362  91   2  0.521720  20.212780       33.937364       34.198755 # H1  
363  91   2  0.521720  21.390733       32.990854       34.106906 # H2  
364  91   3 -1.043440  20.646535       33.232204       34.551926 # M1  
365  92   1  0.000000  35.128722       12.439758       27.965432 # O1  
366  92   2  0.521720  36.083726       12.498480       27.938043 # H1  
367  92   2  0.521720  34.951255       11.536645       28.228346 # H2  
368  92   3 -1.043440  35.194348       12.368489       27.985311 # M1  
369  93   1  0.000000  32.272258        4.549099       23.666276 # O1  
370  93   2  0.521720  31.333665        4.736664       23.656562 # H1  
371  93   2  0.521720  32.332005        3.638284       23.954504 # H2  
372  93   3 -1.043440  32.198081        4.488055       23.689783 # M1  
373  94   1  0.000000  21.587688        1.672897       21.959778 # O1  
374  94   2  0.521720  22.148940        2.445418       21.893161 # H1  
375  94   2  0.521720  22.197595        0.937910       22.023336 # H2  
376  94   3 -1.043440  21.686537        1.676065       21.959520 # M1  
377  95   1  0.000000   5.244282       25.903555        2.384716 # O1
378  95   2  0.521720   4.629151       25.913724        3.118025 # H1
379  95   2  0.521720   5.955553       26.481913        2.660081 # H2
380  95   3 -1.043440   5.252397       25.953228        2.469851 # M1
381  96   1  0.000000   4.751250        6.379374       25.119249 # O1
382  96   2  0.521720   5.329199        6.985415       25.582845 # H1
383  96   2  0.521720   4.018945        6.239470       25.719571 # H2
384  96   3 -1.043440   4.738222        6.418718       25.209046 # M1
385  97   1  0.000000  35.712671       19.785267       16.162112 # O1  
386  97   2  0.521720  35.008083       20.025502       15.560388 # H1  
387  97   2  0.521720  35.303785       19.180472       16.781198 # H2  
388  97   3 -1.043440  35.618691       19.754497       16.163578 # M1  
389  98   1  0.000000  15.001413       33.278088       33.687519 # O1  
390  98   2  0.521720  15.786390       33.317157       33.141154 # H1  
391  98   2  0.521720  15.324554       33.033719       34.554753 # H2  
392  98   3 -1.043440  15.094941       33.260760       33.714601 # M1  
393  99   1  0.000000  25.260200       37.437789       20.536101 # O1  
394  99   2  0.521720  26.023266       38.009846       20.618031 # H1  
395  99   2  0.521720  24.515449       37.998566       20.753138 # H2  
396  99   3 -1.043440  25.261746       37.533403       20.561334 # M1  
397  100  1  0.000000  34.083123       27.953130       24.319225 # O1  
398  100  2  0.521720  33.555548       28.306267       23.602853 # H1  
399  100  2  0.521720  33.518933       27.300248       24.733551 # H2  
400  100  3 -1.043440  33.990975       27.927831       24.293732 # M1  
401  101  1  0.000000   6.594699       18.880663       18.359766 # O1  
402  101  2  0.521720   7.538465       19.028791       18.299813 # H1  
403  101  2  0.521720   6.504135       17.929381       18.415364 # H2  