LAMMPS data file for the TIP4P-Ice water model (explicit)

 8000 atoms
 0 bonds
 0 angles
 0 dihedrals
 0 impropers

 3 atom types
 0 bond types
 0 angle types
 0 dihedral types
 0 improper types

0.000000 39.207088 xlo xhi
0.000000 39.207088 ylo yhi
0.000000 39.207088 zlo zhi

Masses

  1   15.999000  # O
  2    1.008000  # H
  3    1.e-16    # M

# Pair Coeffs
#
# 1  O1
# 2  H1 H2
# 3  M1

# Bond Coeffs
#
# 1    500.000   0.957200   # O-H
# 2    500.000   0.157700   # O-M

# Angle Coeffs
#
# 1  H1-M1-H2
# 2  H1-M1-O1
# 3  50.000000  104.520000    H1-O1-H2
# 4  H1-O1-M1
# 5  H2-M1-O1
# 6  H2-O1-M1
# 7  M1-H1-O1
# 8  M1-H2-O1

 Atoms # full

1    1    1  0.000000  24.672291       14.869168       36.607970 # O1  
2    1    2  0.589700  25.405346       14.883922       35.992630 # H1  
3    1    2  0.589700  24.867956       15.568870       37.231157 # H2  
4    1    3 -1.179400  24.797281       14.965322       36.609026 # M1  
5    2    1  0.000000  37.264354        8.396403       23.460889 # O1  
6    2    2  0.589700  36.488277        8.956168       23.436413 # H1  
7    2    2  0.589700  38.001286        9.007106       23.446575 # H2  
8    2    3 -1.179400  37.259086        8.553929       23.455669 # M1  
9    3    1  0.000000   2.931231       34.199658        9.322306 # O1
10   3    2  0.589700   3.874111       34.364588        9.319736 # H1
11   3    2  0.589700   2.854481       33.245551        9.317922 # H2
12   3    3 -1.179400   3.047798       34.093448        9.321370 # M1
13   4    1  0.000000   5.250600       36.770399        9.099818 # O1
14   4    2  0.589700   5.692356       36.001809        9.460861 # H1
15   4    2  0.589700   4.379523       36.455314        8.858617 # H2
16   4    3 -1.179400   5.192820       36.624554        9.115947 # M1
17   5    1  0.000000  30.895864       35.661432       17.694764 # O1  
18   5    2  0.589700  30.720493       36.598875       17.613057 # H1  
19   5    2  0.589700  31.841010       35.605463       17.835468 # H2  
20   5    3 -1.179400  30.999463       35.780063       17.702704 # M1  
21   6    1  0.000000  10.113819        0.470128       26.947579 # O1  
22   6    2  0.589700  11.031363        0.438060       27.218349 # H1  
23   6    2  0.589700  10.010668        1.335276       26.551208 # H2  
24   6    3 -1.179400  10.223423        0.582247       26.930675 # M1  
25   7    1  0.000000  17.704648        1.387684       21.491552 # O1  
26   7    2  0.589700  16.864183        1.484201       21.043742 # H1  
27   7    2  0.589700  17.816012        0.442280       21.591754 # H2  
28   7    3 -1.179400  17.606523        1.273438       21.444770 # M1  
29   8    1  0.000000  29.139588       31.279152       18.871438 # O1  
30   8    2  0.589700  30.085669       31.418772       18.912281 # H1  
31   8    2  0.589700  28.810335       32.015631       18.356246 # H2  
32   8    3 -1.179400  29.222603       31.397061       18.807598 # M1  
33   9    1  0.000000   7.430004       22.347916       18.701938 # O1  
34   9    2  0.589700   8.212091       21.850565       18.462743 # H1  
35   9    2  0.589700   7.723469       23.258641       18.728199 # H2  
36   9    3 -1.179400   7.574756       22.403549       18.673281 # M1  
37   10   1  0.000000  35.104159       28.027436       34.587633 # O1  
38   10   2  0.589700  35.380746       27.215016       35.011549 # H1  
39   10   2  0.589700  35.921173       28.485810       34.391134 # H2  
40   10   3 -1.179400  35.251339       27.979787       34.618240 # M1  
41   11   1  0.000000   5.557160        3.906135       30.502450 # O1
42   11   2  0.589700   6.212369        3.581578       31.120184 # H1
43   11   2  0.589700   4.979153        3.158381       30.350785 # H2
44   11   3 -1.179400   5.567550        3.761820       30.565176 # M1
45   12   1  0.000000  11.441723       17.706498       30.225834 # O1  
46   12   2  0.589700  12.394514       17.624888       30.183862 # H1  
47   12   2  0.589700  11.291671       18.553516       30.645686 # H2  
48   12   3 -1.179400  11.549759       17.809509       30.276690 # M1  
49   13   1  0.000000  15.538585       25.268756       19.216778 # O1  
50   13   2  0.589700  16.419572       25.441018       19.549072 # H1  
51   13   2  0.589700  15.363057       25.992626       18.615584 # H2  
52   13   3 -1.179400  15.633528       25.389361       19.180588 # M1  
53   14   1  0.000000  28.936384       11.058284       13.740433 # O1  
54   14   2  0.589700  28.877437       10.342779       14.373528 # H1  
55   14   2  0.589700  28.101253       11.519104       13.820633 # H2  
56   14   3 -1.179400  28.816056       11.024008       13.836431 # M1  
57   15   1  0.000000  21.921026       10.594330       11.169432 # O1  
58   15   2  0.589700  21.942889       10.077765       11.974984 # H1  
59   15   2  0.589700  22.046488        9.953262       10.469773 # H2  
60   15   3 -1.179400  21.940853       10.438532       11.183683 # M1  
61   16   1  0.000000  19.620924       23.560839        3.829987 # O1  
62   16   2  0.589700  18.956232       23.053099        4.295407 # H1  
63   16   2  0.589700  19.152783       23.948110        3.090327 # H2  
64   16   3 -1.179400  19.468464       23.544626        3.793079 # M1  
65   17   1  0.000000  30.050013        6.150240       36.510579 # O1  
66   17   2  0.589700  30.504002        5.455980       36.032951 # H1  
67   17   2  0.589700  30.198409        5.943358       37.433298 # H2  
68   17   3 -1.179400  30.131084        6.028961       36.570481 # M1  
69   18   1  0.000000  31.996581       19.992909       31.936169 # O1  
70   18   2  0.589700  32.565134       19.223641       31.901449 # H1  
71   18   2  0.589700  31.195737       19.680626       32.357309 # H2  
72   18   3 -1.179400  31.965319       19.847350       31.988175 # M1  
73   19   1  0.000000  15.150986       28.909390        3.593984 # O1  
74   19   2  0.589700  15.195629       28.143425        3.021677 # H1  
75   19   2  0.589700  14.777469       29.598253        3.044271 # H2  
76   19   3 -1.179400  15.106725       28.899014        3.442979 # M1  
77   20   1  0.000000  32.250552        7.791637        7.899293 # O1
78   20   2  0.589700  31.815617        6.938972        7.904161 # H1
79   20   2  0.589700  31.576787        8.406385        8.189734 # H2
80   20   3 -1.179400  32.101340        7.759618        7.939037 # M1
81   21   1  0.000000   0.425278       31.003406       29.933965 # O1  
82   21   2  0.589700   0.774244       30.945887       29.044501 # H1  
83   21   2  0.589700   0.414645       30.098749       30.246557 # H2  
84   21   3 -1.179400   0.470812       30.873913       29.856327 # M1  
85   22   1  0.000000   2.180069       18.880588        0.173352 # O1
86   22   2  0.589700   1.872023       18.022217        0.464107 # H1
87   22   2  0.589700   1.402246       19.437633        0.203721 # H2
88   22   3 -1.179400   2.033929       18.840034        0.216570 # M1
89   23   1  0.000000   4.682776       36.102434       18.570139 # O1  
90   23   2  0.589700   4.096273       35.347885       18.624003 # H1  
91   23   2  0.589700   5.560550       35.722173       18.536290 # H2  
92   23   3 -1.179400   4.721976       35.949707       18.572832 # M1  
93   24   1  0.000000  31.647799        2.283633       30.800037 # O1  
94   24   2  0.589700  31.803892        1.554137       30.200286 # H1  
95   24   2  0.589700  32.290792        2.161818       31.498572 # H2  
96   24   3 -1.179400  31.755343        2.169061       30.813331 # M1  
97   25   1  0.000000  10.921485       13.926575        4.844225 # O1  
98   25   2  0.589700  10.701167       14.729659        5.316186 # H1  
99   25   2  0.589700  11.664145       13.561548        5.325311 # H2  
100  25   3 -1.179400  10.991784       13.985530        4.972490 # M1  
101  26   1  0.000000  15.329557       13.392421        8.175071 # O1  
102  26   2  0.589700  14.439439       13.743839        8.154451 # H1  
103  26   2  0.589700  15.211964       12.444693        8.239991 # H2  
104  26   3 -1.179400  15.193936       13.312168        8.181033 # M1  
105  27   1  0.000000  14.308885       16.049110        4.486468 # O1  
106  27   2  0.589700  14.117597       15.114472        4.408407 # H1  
107  27   2  0.589700  15.262937       16.094367        4.549468 # H2  
108  27   3 -1.179400  14.411541       15.929414        4.484441 # M1  
109  28   1  0.000000  26.491686        7.639683       18.273501 # O1  
110  28   2  0.589700  26.775672        8.549634       18.360512 # H1  
111  28   2  0.589700  27.112333        7.252574       17.656107 # H2  
112  28   3 -1.179400  26.613435        7.710048       18.202120 # M1  
113  29   1  0.000000   4.778293       23.942010       32.361295 # O1  
114  29   2  0.589700   5.652028       24.329393       32.308821 # H1  
115  29   2  0.589700   4.182724       24.691327       32.354010 # H2  
116  29   3 -1.179400   4.815730       24.094991       32.353252 # M1  
117  30   1  0.000000   2.054876        2.586834       35.498052 # O1
118  30   2  0.589700   1.828175        3.425532       35.096279 # H1
119  30   2  0.589700   2.938476        2.716753       35.842439 # H2
120  30   3 -1.179400   2.143284        2.717193       35.490329 # M1
121  31   1  0.000000  10.636304       11.630995        0.609487 # O1  
122  31   2  0.589700   9.873697       12.209444        0.601883 # H1
123  31   2  0.589700  11.387506       12.224229        0.609479 # H2  
124  31   3 -1.179400  10.634769       11.788684        0.608462 # M1  
125  32   1  0.000000  21.112062       13.757598       11.564113 # O1  
126  32   2  0.589700  20.568048       13.267452       10.947641 # H1  
127  32   2  0.589700  21.770830       14.184246       11.016183 # H2  
128  32   3 -1.179400  21.127506       13.749052       11.407404 # M1  
129  33   1  0.000000  29.377636       36.103092       29.119942 # O1  
130  33   2  0.589700  29.391397       36.006769       28.167701 # H1  
131  33   2  0.589700  29.779989       35.299036       29.448327 # H2  
132  33   3 -1.179400  29.433638       35.981916       29.035982 # M1  
133  34   1  0.000000   6.243944       32.665215       28.273336 # O1  
134  34   2  0.589700   5.470313       33.145770       28.567944 # H1  
135  34   2  0.589700   6.894062       33.344265       28.093147 # H2  
136  34   3 -1.179400   6.227321       32.821279       28.288735 # M1  
137  35   1  0.000000   8.638080       13.778288       20.101052 # O1  
138  35   2  0.589700   8.818286       12.838636       20.129509 # H1  
139  35   2  0.589700   7.693224       13.845720       20.238648 # H2  
140  35   3 -1.179400   8.535170       13.660902       20.123400 # M1  
141  36   1  0.000000  34.569592        5.866206       14.293231 # O1  
142  36   2  0.589700  35.022590        5.238663       13.730014 # H1  
143  36   2  0.589700  35.086744        6.668610       14.222995 # H2  
144  36   3 -1.179400  34.700158        5.889740       14.207979 # M1  
145  37   1  0.000000  35.432765        9.240608       17.969643 # O1  
146  37   2  0.589700  35.918576        8.423212       17.859717 # H1  
147  37   2  0.589700  34.585289        8.970404       18.323204 # H2  
148  37   3 -1.179400  35.384091        9.094235       18.002433 # M1  
149  38   1  0.000000  27.700819       26.468107       24.592268 # O1  
150  38   2  0.589700  27.203253       26.350300       25.401453 # H1  
151  38   2  0.589700  27.358741       25.798029       24.000484 # H2  
152  38   3 -1.179400  27.587817       26.362071       24.621526 # M1  
153  39   1  0.000000  23.327482        8.257062       35.239834 # O1  
154  39   2  0.589700  23.155891        9.184953       35.400475 # H1  
155  39   2  0.589700  23.868223        7.981354       35.979980 # H2  
156  39   3 -1.179400  23.377164        8.344835       35.361065 # M1  
157  40   1  0.000000  20.395864       21.571205       10.345582 # O1  
158  40   2  0.589700  19.749655       22.157108        9.951419 # H1  
159  40   2  0.589700  20.351545       20.774535        9.816825 # H2  
160  40   3 -1.179400  20.302930       21.542840       10.221372 # M1  
161  41   1  0.000000   0.742408        9.399704       29.613938 # O1
162  41   2  0.589700   0.190974       10.182103       29.615873 # H1  
163  41   2  0.589700   0.261625        8.765928       30.146298 # H2
164  41   3 -1.179400   0.603489        9.419706       29.685845 # M1
165  42   1  0.000000  14.158747       33.229135       26.013472 # O1  
166  42   2  0.589700  14.856683       33.764513       25.635998 # H1  
167  42   2  0.589700  14.279129       32.365212       25.619294 # H2  
168  42   3 -1.179400  14.268879       33.184918       25.909620 # M1  
169  43   1  0.000000  21.749355        1.255593       24.985716 # O1  
170  43   2  0.589700  22.331050        0.521276       25.182289 # H1  
171  43   2  0.589700  22.339288        1.987872       24.806895 # H2  
172  43   3 -1.179400  21.907037        1.255318       24.988105 # M1  
173  44   1  0.000000  19.478599       29.087718        7.113952 # O1  
174  44   2  0.589700  18.536529       29.017785        6.959536 # H1  
175  44   2  0.589700  19.635356       30.025986        7.220311 # H2  
176  44   3 -1.179400  19.372909       29.204582        7.107484 # M1  
177  45   1  0.000000  16.798161       17.446196       22.218075 # O1  
178  45   2  0.589700  17.411945       16.712255       22.246901 # H1  
179  45   2  0.589700  15.969518       17.078259       22.525003 # H2  
180  45   3 -1.179400  16.769245       17.297901       22.263262 # M1  
181  46   1  0.000000  30.959543       14.194757       24.034251 # O1  
182  46   2  0.589700  31.209037       13.285007       23.871958 # H1  
183  46   2  0.589700  31.791343       14.656746       24.138688 # H2  
184  46   3 -1.179400  31.105068       14.134496       24.026465 # M1  
185  47   1  0.000000  10.571829        2.266749        8.853193 # O1
186  47   2  0.589700   9.931067        1.893156        8.248145 # H1
187  47   2  0.589700  10.887962        3.054871        8.411429 # H2
188  47   3 -1.179400  10.528139        2.322538        8.712309 # M1
189  48   1  0.000000  25.056048       25.061520        5.387391 # O1  
190  48   2  0.589700  24.706732       25.943447        5.515508 # H1  
191  48   2  0.589700  24.521239       24.691231        4.685183 # H2  
192  48   3 -1.179400  24.937060       25.130378        5.310128 # M1  
193  49   1  0.000000  32.220611       26.690469       22.669856 # O1  
194  49   2  0.589700  31.995040       25.813526       22.359501 # H1  
195  49   2  0.589700  31.578106       27.265020       22.253551 # H2  
196  49   3 -1.179400  32.103782       26.649772       22.572060 # M1  
197  50   1  0.000000   1.317879        5.876003       10.427693 # O1
198  50   2  0.589700   2.074120        5.385751       10.105228 # H1
199  50   2  0.589700   0.578937        5.277798       10.316576 # H2
200  50   3 -1.179400   1.320207        5.729514       10.369340 # M1
201  51   1  0.000000  18.569837       13.048217        1.908667 # O1  
202  51   2  0.589700  18.097126       12.767773        2.692329 # H1  
203  51   2  0.589700  18.369862       12.378081        1.255093 # H2  
204  51   3 -1.179400  18.479305       12.920284        1.926175 # M1  
205  52   1  0.000000   8.126294        5.642697       14.814216 # O1
206  52   2  0.589700   7.607629        4.850618       14.673399 # H1
207  52   2  0.589700   7.619764        6.338791       14.395754 # H2
208  52   3 -1.179400   7.988320        5.629779       14.738946 # M1
209  53   1  0.000000  17.573788       18.759387       34.686230 # O1  
210  53   2  0.589700  16.884233       19.394804       34.878559 # H1  
211  53   2  0.589700  18.378959       19.180563       34.987131 # H2  
212  53   3 -1.179400  17.589348       18.901587       34.752610 # M1  
213  54   1  0.000000  25.060792       15.158743       17.493086 # O1  
214  54   2  0.589700  24.558087       14.541519       16.961529 # H1  
215  54   2  0.589700  25.975269       14.934685       17.320571 # H2  
216  54   3 -1.179400  25.116210       15.045521       17.398330 # M1  
217  55   1  0.000000  19.277936       22.779025       36.998257 # O1  
218  55   2  0.589700  19.655321       22.166894       37.630007 # H1  
219  55   2  0.589700  19.269714       22.296247       36.171766 # H2  
220  55   3 -1.179400  19.327619       22.631668       36.972048 # M1  
221  56   1  0.000000  37.589642       31.843560       31.028195 # O1  
222  56   2  0.589700  37.999936       32.575547       31.488724 # H1  
223  56   2  0.589700  36.953749       31.493575       31.652200 # H2  
224  56   3 -1.179400  37.559280       31.894971       31.174156 # M1  
225  57   1  0.000000  11.405256       31.486637       25.969164 # O1  
226  57   2  0.589700  12.318941       31.252935       25.805473 # H1  
227  57   2  0.589700  11.424955       32.428721       26.137452 # H2  
228  57   3 -1.179400  11.530874       31.581974       25.969782 # M1  
229  58   1  0.000000  13.696071       24.506870        7.538267 # O1  
230  58   2  0.589700  14.279467       25.262353        7.609865 # H1  
231  58   2  0.589700  13.904934       23.969129        8.302101 # H2  
232  58   3 -1.179400  13.802696       24.536174        7.650703 # M1  
233  59   1  0.000000  11.246941       24.169074        7.480116 # O1  
234  59   2  0.589700  11.023666       24.862642        8.100876 # H1  
235  59   2  0.589700  11.768100       23.549070        7.990234 # H2  
236  59   3 -1.179400  11.287032       24.178974        7.632314 # M1  
237  60   1  0.000000  16.419402       23.035192       17.928661 # O1  
238  60   2  0.589700  16.777046       23.920564       17.995278 # H1  
239  60   2  0.589700  15.877194       23.054095       17.140065 # H2  
240  60   3 -1.179400  16.394563       23.156893       17.831495 # M1  
241  61   1  0.000000  37.144964       36.620413        1.717940 # O1  
242  61   2  0.589700  37.540561       37.231530        1.096433 # H1  
243  61   2  0.589700  36.203681       36.776936        1.642319 # H2  
244  61   3 -1.179400  37.071524       36.723725        1.624118 # M1  
245  62   1  0.000000   3.525052       27.688564        2.323785 # O1
246  62   2  0.589700   3.175148       28.183642        1.583045 # H1
247  62   2  0.589700   4.406014       28.040030        2.452664 # H2
248  62   3 -1.179400   3.596524       27.802495        2.241438 # M1
249  63   1  0.000000   8.028126        7.699261        4.222825 # O1
250  63   2  0.589700   7.496231        6.903540        4.210689 # H1
251  63   2  0.589700   7.391140        8.413407        4.244641 # H2
252  63   3 -1.179400   7.870814        7.688282        4.224128 # M1
253  64   1  0.000000   4.566096       29.899118        0.869808 # O1
254  64   2  0.589700   4.522466       30.705235        0.355510 # H1
255  64   2  0.589700   5.410179       29.511866        0.637877 # H2
256  64   3 -1.179400   4.673824       29.955490        0.769378 # M1
257  65   1  0.000000  35.243036        5.605396       10.139357 # O1
258  65   2  0.589700  34.433724        5.105846       10.247503 # H1  
259  65   2  0.589700  34.958721        6.518818       10.106850 # H2
260  65   3 -1.179400  35.095852        5.661097       10.149537 # M1  
261  66   1  0.000000  15.055507       21.386767       15.953317 # O1  
262  66   2  0.589700  15.886576       20.999082       16.227645 # H1  
263  66   2  0.589700  14.412905       21.039525       16.571956 # H2  
264  66   3 -1.179400  15.080872       21.287858       16.073495 # M1  
265  67   1  0.000000  28.413740        8.634583       10.403384 # O1  
266  67   2  0.589700  28.376746        7.830829        9.884884 # H1
267  67   2  0.589700  28.197002        9.330565        9.783008 # H2
268  67   3 -1.179400  28.379592        8.620079       10.250110 # M1  
269  68   1  0.000000  22.273631       33.965423        4.676926 # O1  
270  68   2  0.589700  21.507198       33.394723        4.621135 # H1  
271  68   2  0.589700  21.927659       34.802235        4.987217 # H2  
272  68   3 -1.179400  22.123920       34.001238        4.711177 # M1  
273  69   1  0.000000  24.719653       28.024134       15.665723 # O1  
274  69   2  0.589700  25.467718       28.133551       16.252800 # H1  
275  69   2  0.589700  25.038840       27.441943       14.976227 # H2  
276  69   3 -1.179400  24.863288       27.960506       15.651939 # M1  
277  70   1  0.000000  11.500724       24.473747       30.140288 # O1  
278  70   2  0.589700  12.299010       24.982963       30.000041 # H1  
279  70   2  0.589700  11.774532       23.563143       30.030469 # H2  
280  70   3 -1.179400  11.645010       24.419727       30.106633 # M1  
281  71   1  0.000000  12.666829        4.769215       12.481667 # O1  
282  71   2  0.589700  13.467348        4.828339       11.960222 # H1  
283  71   2  0.589700  12.833157        5.327908       13.240896 # H2  
284  71   3 -1.179400  12.796951        4.852363       12.513669 # M1  
285  72   1  0.000000  25.794718       10.768351       21.291441 # O1  
286  72   2  0.589700  24.881211       10.566713       21.088766 # H1  
287  72   2  0.589700  26.142076        9.958408       21.665027 # H2  
288  72   3 -1.179400  25.718524       10.632209       21.314443 # M1  
289  73   1  0.000000   2.063256       21.619336       17.250752 # O1  
290  73   2  0.589700   2.593110       21.928253       17.985637 # H1  
291  73   2  0.589700   1.361646       22.265728       17.172310 # H2  
292  73   3 -1.179400   2.040140       21.747905       17.339098 # M1  
293  74   1  0.000000  32.599677       21.257016       28.106171 # O1  
294  74   2  0.589700  33.358045       21.702084       27.727986 # H1  
295  74   2  0.589700  32.792437       20.325079       28.003374 # H2  
296  74   3 -1.179400  32.727683       21.191492       28.041439 # M1  
297  75   1  0.000000  11.454641       27.035773        5.357823 # O1  
298  75   2  0.589700  11.846275       26.209502        5.074749 # H1  
299  75   2  0.589700  10.890390       27.295811        4.629652 # H2  
300  75   3 -1.179400  11.431410       26.959567        5.221726 # M1  
301  76   1  0.000000   7.558294       35.313785       25.238938 # O1  
302  76   2  0.589700   7.918378       34.877579       24.466736 # H1  
303  76   2  0.589700   7.097263       34.621415       25.712546 # H2  
304  76   3 -1.179400   7.544709       35.161897       25.198752 # M1  
305  77   1  0.000000  32.261313       16.319473        0.410696 # O1  
306  77   2  0.589700  32.576770       15.738517        1.102945 # H1  
307  77   2  0.589700  31.544357       15.836214        0.000007 # H2  
308  77   3 -1.179400  32.207278       16.176247        0.448590 # M1  
309  78   1  0.000000  25.926127        9.739727       32.461509 # O1  
310  78   2  0.589700  25.252550        9.844997       33.133404 # H1  
311  78   2  0.589700  25.583087        9.059197       31.882342 # H2  
312  78   3 -1.179400  25.789307        9.662307       32.473989 # M1  
313  79   1  0.000000   7.680185       18.999617        9.268694 # O1
314  79   2  0.589700   8.595683       18.918521        9.001263 # H1
315  79   2  0.589700   7.584243       18.375852        9.988377 # H2
316  79   3 -1.179400   7.790484       18.904754        9.329559 # M1
317  80   1  0.000000  15.148348        4.177656        7.754840 # O1
318  80   2  0.589700  16.056992        4.450386        7.627501 # H1
319  80   2  0.589700  14.642416        4.986948        7.681973 # H2
320  80   3 -1.179400  15.202546        4.323278        7.727896 # M1
321  81   1  0.000000   5.607862       15.236985       24.721249 # O1  
322  81   2  0.589700   5.069450       14.949052       23.984066 # H1  
323  81   2  0.589700   5.699679       16.181614       24.596842 # H2  
324  81   3 -1.179400   5.547757       15.325366       24.605293 # M1  
325  82   1  0.000000  33.138448       21.261611       13.609415 # O1  
326  82   2  0.589700  33.599385       21.560108       14.393422 # H1  
327  82   2  0.589700  33.484047       21.809429       12.904655 # H2  
328  82   3 -1.179400  33.246994       21.375511       13.620080 # M1  
329  83   1  0.000000   0.585699       29.658610       33.362588 # O1  
330  83   2  0.589700  -0.000251       30.415505       33.364446 # H1  
331  83   2  0.589700  -0.000110       28.901605       33.363920 # H2  
332  83   3 -1.179400   0.428000       29.658596       33.363017 # M1  
333  84   1  0.000000  30.664239        4.000456       18.046505 # O1  
334  84   2  0.589700  31.500960        3.890778       17.594731 # H1  
335  84   2  0.589700  30.448868        4.925982       17.931401 # H2  
336  84   3 -1.179400  30.747863        4.110256       17.970212 # M1  
337  85   1  0.000000   5.287075        8.750649        6.109536 # O1
338  85   2  0.589700   6.231822        8.596778        6.106696 # H1
339  85   2  0.589700   4.901248        7.874654        6.108440 # H2
340  85   3 -1.179400   5.362296        8.612046        6.109006 # M1
341  86   1  0.000000  25.487819       12.021355       11.644336 # O1  
342  86   2  0.589700  25.949538       11.644718       12.393463 # H1  
343  86   2  0.589700  25.405672       12.951270       11.855853 # H2  
344  86   3 -1.179400  25.538904       12.095817       11.773622 # M1  
345  87   1  0.000000   3.379021       30.348532       30.093072 # O1  
346  87   2  0.589700   3.168602       29.547368       29.613394 # H1  
347  87   2  0.589700   2.559044       30.594098       30.521517 # H2  
348  87   3 -1.179400   3.240347       30.273757       30.086177 # M1  
349  88   1  0.000000  -0.000245        2.195229       12.939347 # O1  
350  88   2  0.589700   0.062644        3.150355       12.942674 # H1
351  88   2  0.589700   0.893919        1.895277       13.102844 # H2
352  88   3 -1.179400   0.128559        2.283405       12.961799 # M1
353  89   1  0.000000   1.720054        7.010033       31.623818 # O1
354  89   2  0.589700   2.264188        6.222563       31.617439 # H1
355  89   2  0.589700   2.345963        7.734235       31.624899 # H2
356  89   3 -1.179400   1.877522        7.001518       31.623105 # M1
357  90   1  0.000000   5.519977        2.761392       25.870104 # O1
358  90   2  0.589700   5.168122        2.017792       25.380728 # H1
359  90   2  0.589700   5.670456        3.435347       25.207252 # H2
360  90   3 -1.179400   5.492875        2.752019       25.715033 # M1
361  91   1  0.000000  20.613080       33.185741       34.608362 # O1  
362  91   2  0.589700  20.199997       33.929339       34.169435 # H1  
363  91   2  0.589700  21.387973       32.995232       34.079706 # H2  
364  91   3 -1.179400  20.661773       33.260178       34.478141 # M1  
365  92   1  0.000000  35.134220       12.438585       28.025324 # O1  
366  92   2  0.589700  36.090224       12.481110       28.003433 # H1  
367  92   2  0.589700  34.939916       11.537352       28.282727 # H2  
368  92   3 -1.179400  35.236732       12.323017       28.057020 # M1  
369  93   1  0.000000  32.260826        4.587822       23.572773 # O1  
370  93   2  0.589700  31.321703        4.772740       23.563566 # H1  
371  93   2  0.589700  32.324178        3.682448       23.876937 # H2  
372  93   3 -1.179400  32.142962        4.490861       23.612469 # M1  
373  94   1  0.000000  21.598365        1.712087       22.032148 # O1  
374  94   2  0.589700  22.115398        2.516663       21.992583 # H1  
375  94   2  0.589700  22.248552        1.010535       22.068359 # H2  
376  94   3 -1.179400  21.755453        1.725952       22.031696 # M1  
377  95   1  0.000000   5.239797       25.895664        2.374531 # O1
378  95   2  0.589700   4.623651       25.904877        3.107000 # H1
379  95   2  0.589700   5.948930       26.476534        2.650123 # H2
380  95   3 -1.179400   5.252312       25.975079        2.510200 # M1
381  96   1  0.000000   4.854157        5.970302       24.915940 # O1
382  96   2  0.589700   5.121953        6.657842       25.525698 # H1
383  96   2  0.589700   4.232174        5.438287       25.412254 # H2
384  96   3 -1.179400   4.806489        5.991233       25.064799 # M1
385  97   1  0.000000  35.743436       19.573270       16.167773 # O1  
386  97   2  0.589700  34.985460       19.563693       15.583298 # H1  
387  97   2  0.589700  35.475882       19.040319       16.916512 # H2  
388  97   3 -1.179400  35.605417       19.500255       16.189880 # M1  
389  98   1  0.000000  14.987308       33.287812       33.678250 # O1  
390  98   2  0.589700  15.764993       33.334263       33.122122 # H1  
391  98   2  0.589700  15.323264       33.043932       34.540739 # H2  
392  98   3 -1.179400  15.137186       33.261241       33.719481 # M1  
393  99   1  0.000000  25.235201       37.441410       20.521771 # O1  
394  99   2  0.589700  26.007132       37.999083       20.618490 # H1  
395  99   2  0.589700  24.502043       37.999268       20.781587 # H2  
396  99   3 -1.179400  25.240419       37.591542       20.569755 # M1  
397  100  1  0.000000  34.115424       27.906468       24.786000 # O1  
398  100  2  0.589700  33.502181       28.059133       24.067071 # H1  
399  100  2  0.589700  33.672456       27.271137       25.348462 # H2  
400  100  3 -1.179400  33.973276       27.841510       24.764942 # M1  
401  101  1  0.000000   6.614585       18.804747       18.275943 # O1  
402  101  2  0.589700   7.556328       18.968597       18.225900 # H1  
403  101  2  0.589700   6.538920       17.851643       18.321753 # H2  