LAMMPS data file for the TIP4P-FB water model (explicit)

 8000 atoms
 0 bonds
 0 angles
 0 dihedrals
 0 impropers

 3 atom types
 0 bond types
 0 angle types
 0 dihedral types
 0 improper types

0.000000 39.151418 xlo xhi
0.000000 39.151418 ylo yhi
0.000000 39.151418 zlo zhi

Masses

  1   15.999000  # O
  2    1.008000  # H
  3    1.e-16    # M

# Pair Coeffs
#
# 1  O1
# 2  H1 H2
# 3  M1

# Bond Coeffs
#
# 1    500.000000   0.957200   # O-H
# 2    500.000000   0.105270   # O-M

# Angle Coeffs
#
# 1  H1-M1-H2
# 2  H1-M1-O1
# 3  50.000000  104.520000    H1-O1-H2
# 4  H1-O1-M1
# 5  H2-M1-O1
# 6  H2-O1-M1
# 7  M1-H1-O1
# 8  M1-H2-O1

 Atoms # full

1    1    1  0.000000  24.731967       14.855587       36.538644 # O1  
2    1    2  0.525870  25.475848       14.843622       35.936373 # H1  
3    1    2  0.525870  24.911212       15.589130       37.126876 # H2  
4    1    3 -1.051740  24.814900       14.920413       36.537383 # M1  
5    2    1  0.000000  37.212904        8.417945       23.450256 # O1  
6    2    2  0.525870  36.487051        9.041594       23.429539 # H1  
7    2    2  0.525870  37.998932        8.964094       23.439613 # H2  
8    2    3 -1.051740  37.218310        8.523038       23.447439 # M1  
9    3    1  0.000000   2.960753       34.207464        9.367464 # O1
10   3    2  0.525870   3.908900       34.338553        9.359426 # H1
11   3    2  0.525870   2.849800       33.256806        9.354401 # H2
12   3    3 -1.051740   3.035965       34.133835        9.365568 # M1
13   4    1  0.000000   5.239155       36.754620        9.104711 # O1
14   4    2  0.525870   5.688372       35.989783        9.464515 # H1
15   4    2  0.525870   4.369959       36.432300        8.866303 # H2
16   4    3 -1.051740   5.201424       36.656951        9.115617 # M1
17   5    1  0.000000  30.895427       35.664662       17.710503 # O1  
18   5    2  0.525870  30.698272       36.599355       17.649584 # H1  
19   5    2  0.525870  31.846303       35.626171       17.813382 # H2  
20   5    3 -1.051740  30.963140       35.745176       17.714273 # M1  
21   6    1  0.000000  10.108840        0.546296       26.919008 # O1  
22   6    2  0.525870  11.035832        0.637182       27.139587 # H1  
23   6    2  0.525870   9.867414        1.392946       26.543338 # H2  
24   6    3 -1.051740  10.170430        0.630523       26.905075 # M1  
25   7    1  0.000000  17.546641        1.613954       21.598374 # O1  
26   7    2  0.525870  16.667600        1.641635       21.220548 # H1  
27   7    2  0.525870  17.736996        0.680877       21.695131 # H2  
28   7    3 -1.051740  17.484770        1.532614       21.573123 # M1  
29   8    1  0.000000  29.121215       31.220234       18.883038 # O1  
30   8    2  0.525870  30.060675       31.401973       18.907898 # H1  
31   8    2  0.525870  28.741053       31.981404       18.444487 # H2  
32   8    3 -1.051740  29.171462       31.304944       18.845873 # M1  
33   9    1  0.000000   7.410939       22.351619       18.740328 # O1  
34   9    2  0.525870   8.200253       21.870971       18.490944 # H1  
35   9    2  0.525870   7.686899       23.267719       18.769253 # H2  
36   9    3 -1.051740   7.506642       22.390739       18.720522 # M1  
37   10   1  0.000000  35.155704       28.037119       34.707866 # O1  
38   10   2  0.525870  35.407266       27.152568       34.973417 # H1  
39   10   2  0.525870  35.986451       28.498179       34.591622 # H2  
40   10   3 -1.051740  35.252937       27.999073       34.721280 # M1  
41   11   1  0.000000   5.793317        3.865120       30.637935 # O1
42   11   2  0.525870   6.456905        3.456904       31.194029 # H1
43   11   2  0.525870   5.141844        3.177964       30.497826 # H2
44   11   3 -1.051740   5.794405        3.766713       30.675306 # M1
45   12   1  0.000000  11.400831       17.746866       30.243601 # O1  
46   12   2  0.525870  12.339332       17.564764       30.195785 # H1  
47   12   2  0.525870  11.344786       18.614190       30.644647 # H2  
48   12   3 -1.051740  11.480110       17.808425       30.275334 # M1  
49   13   1  0.000000  15.451850       25.234691       19.336115 # O1  
50   13   2  0.525870  16.337926       25.258872       19.697384 # H1  
51   13   2  0.525870  15.408302       25.994960       18.756180 # H2  
52   13   3 -1.051740  15.527542       25.305165       19.316470 # M1  
53   14   1  0.000000  29.380625       10.888019       13.777141 # O1  
54   14   2  0.525870  28.851235       10.316094       14.332909 # H1  
55   14   2  0.525870  28.863600       11.689485       13.696091 # H2  
56   14   3 -1.051740  29.286617       10.908641       13.819789 # M1  
57   15   1  0.000000  21.925143       10.575660       11.154864 # O1  
58   15   2  0.525870  21.945675       10.056593       11.958841 # H1  
59   15   2  0.525870  22.028701        9.933965       10.452202 # H2  
60   15   3 -1.051740  21.936291       10.471379       11.163966 # M1  
61   16   1  0.000000  19.589774       23.557248        3.771685 # O1  
62   16   2  0.525870  18.907608       23.081505        4.245551 # H1  
63   16   2  0.525870  19.142656       23.919179        3.006620 # H2  
64   16   3 -1.051740  19.488320       23.547024        3.745524 # M1  
65   17   1  0.000000  30.157456        6.125708       36.493286 # O1  
66   17   2  0.525870  30.641086        5.465358       35.997030 # H1  
67   17   2  0.525870  30.294272        5.885158       37.409609 # H2  
68   17   3 -1.051740  30.213196        6.044772       36.531024 # M1  
69   18   1  0.000000  31.986191       19.965072       31.957448 # O1  
70   18   2  0.525870  32.539309       19.184376       31.929043 # H1  
71   18   2  0.525870  31.175984       19.670164       32.373170 # H2  
72   18   3 -1.051740  31.963094       19.868441       31.992244 # M1  
73   19   1  0.000000  15.142378       28.925506        3.581677 # O1  
74   19   2  0.525870  15.210576       28.160531        3.010367 # H1  
75   19   2  0.525870  14.762851       29.606622        3.026455 # H2  
76   19   3 -1.051740  15.114408       28.917972        3.480470 # M1  
77   20   1  0.000000  32.152648        7.962395        8.015663 # O1
78   20   2  0.525870  31.706542        7.115537        8.022847 # H1
79   20   2  0.525870  31.483024        8.588726        8.290516 # H2
80   20   3 -1.051740  32.052412        7.942584        8.041001 # M1
81   21   1  0.000000   0.396740       31.032464       29.922328 # O1  
82   21   2  0.525870   0.762913       31.045995       29.038040 # H1  
83   21   2  0.525870   0.415981       30.109677       30.175950 # H2  
84   21   3 -1.051740   0.431365       30.950777       29.865670 # M1  
85   22   1  0.000000   2.117751       18.811254        0.151526 # O1
86   22   2  0.525870   1.939114       17.903703        0.397841 # H1
87   22   2  0.525870   1.266681       19.246162        0.204113 # H2
88   22   3 -1.051740   2.025243       18.768792        0.178379 # M1
89   23   1  0.000000   4.677283       36.293488       18.626368 # O1  
90   23   2  0.525870   4.181207       35.501721       18.834324 # H1  
91   23   2  0.525870   5.573298       35.986111       18.488864 # H2  
92   23   3 -1.051740   4.713213       36.194742       18.632697 # M1  
93   24   1  0.000000  31.654264        2.291997       30.808309 # O1  
94   24   2  0.525870  31.796853        1.568907       30.197540 # H1  
95   24   2  0.525870  32.295215        2.148026       31.504502 # H2  
96   24   3 -1.051740  31.724656        2.214101       30.815984 # M1  
97   25   1  0.000000  10.805154       13.947737        4.763300 # O1  
98   25   2  0.525870  10.634557       14.752330        5.252951 # H1  
99   25   2  0.525870  11.547591       13.545374        5.213990 # H2  
100  25   3 -1.051740  10.856528       13.983873        4.847779 # M1  
101  26   1  0.000000  15.290957       13.376416        8.181066 # O1  
102  26   2  0.525870  14.394981       13.712524        8.158937 # H1  
103  26   2  0.525870  15.189532       12.427293        8.252550 # H2  
104  26   3 -1.051740  15.201352       13.321344        8.185500 # M1  
105  27   1  0.000000  14.342265       16.079526        4.503298 # O1  
106  27   2  0.525870  14.083841       15.160730        4.430765 # H1  
107  27   2  0.525870  15.297597       16.056489        4.558446 # H2  
108  27   3 -1.051740  14.404875       15.994913        4.501736 # M1  
109  28   1  0.000000  26.328233        7.627904       18.383012 # O1  
110  28   2  0.525870  26.847322        8.432080       18.391793 # H1  
111  28   2  0.525870  26.829588        7.024619       17.834449 # H2  
112  28   3 -1.051740  26.419908        7.645952       18.334519 # M1  
113  29   1  0.000000   4.798202       23.958500       32.444234 # O1  
114  29   2  0.525870   5.604442       24.457413       32.312729 # H1  
115  29   2  0.525870   4.104400       24.617929       32.439234 # H2  
116  29   3 -1.051740   4.808303       24.062564       32.431970 # M1  
117  30   1  0.000000   2.142565        2.403207       35.585497 # O1
118  30   2  0.525870   1.842891        3.208391       35.163470 # H1
119  30   2  0.525870   3.013555        2.617306       35.919815 # H2
120  30   3 -1.051740   2.193891        2.494779       35.577617 # M1
121  31   1  0.000000  10.625601       11.640026        0.606361 # O1  
122  31   2  0.525870   9.872008       12.230179        0.599374 # H1
123  31   2  0.525870  11.385868       12.221598        0.606410 # H2  
124  31   3 -1.051740  10.626201       11.745293        0.605738 # M1  
125  32   1  0.000000  21.081168       13.736837       11.563624 # O1  
126  32   2  0.525870  20.554622       13.242084       10.935772 # H1  
127  32   2  0.525870  21.735219       14.185298       11.027591 # H2  
128  32   3 -1.051740  21.092623       13.732679       11.459062 # M1  
129  33   1  0.000000  29.359968       36.080980       29.147001 # O1  
130  33   2  0.525870  29.370175       35.973786       28.195877 # H1  
131  33   2  0.525870  29.732479       35.266319       29.484333 # H2  
132  33   3 -1.051740  29.394351       35.998162       29.091858 # M1  
133  34   1  0.000000   6.228031       32.682835       28.223422 # O1  
134  34   2  0.525870   5.456953       33.165406       28.521408 # H1  
135  34   2  0.525870   6.879436       33.360129       28.041284 # H2  
136  34   3 -1.051740   6.217280       32.787036       28.233830 # M1  
137  35   1  0.000000   8.514303       14.043112       20.241609 # O1  
138  35   2  0.525870   8.397236       13.094977       20.301328 # H1  
139  35   2  0.525870   7.638326       14.402413       20.382317 # H2  
140  35   3 -1.051740   8.425089       13.990212       20.259615 # M1  
141  36   1  0.000000  34.556090        5.863308       14.298343 # O1  
142  36   2  0.525870  34.999847        5.230596       13.733554 # H1  
143  36   2  0.525870  35.077556        6.662149       14.219876 # H2  
144  36   3 -1.051740  34.642805        5.878233       14.240553 # M1  
145  37   1  0.000000  35.435283        9.248100       17.986349 # O1  
146  37   2  0.525870  35.907014        8.421184       17.886789 # H1  
147  37   2  0.525870  34.574133        8.994632       18.318622 # H2  
148  37   3 -1.051740  35.400298        9.151039       18.007255 # M1  
149  38   1  0.000000  27.924461       26.630942       24.613031 # O1  
150  38   2  0.525870  27.389092       26.602263       25.405993 # H1  
151  38   2  0.525870  27.586513       25.919238       24.069432 # H2  
152  38   3 -1.051740  27.846003       26.564427       24.635433 # M1  
153  39   1  0.000000  23.375856        8.287324       35.252591 # O1  
154  39   2  0.525870  23.212395        9.219948       35.393031 # H1  
155  39   2  0.525870  23.901481        8.019620       36.006437 # H2  
156  39   3 -1.051740  23.408393        8.347060       35.332933 # M1  
157  40   1  0.000000  20.387320       21.581368       10.337792 # O1  
158  40   2  0.525870  19.736868       22.163593        9.945162 # H1  
159  40   2  0.525870  20.347787       20.785258        9.807813 # H2  
160  40   3 -1.051740  20.325333       21.562153       10.254906 # M1  
161  41   1  0.000000   0.848502        9.287108       29.588825 # O1
162  41   2  0.525870   0.314963       10.081820       29.589140 # H1  
163  41   2  0.525870   0.339303        8.655995       30.097395 # H2
164  41   3 -1.051740   0.754823        9.301806       29.634542 # M1
165  42   1  0.000000  14.174780       33.290351       26.011184 # O1  
166  42   2  0.525870  14.849646       33.845276       25.620229 # H1  
167  42   2  0.525870  14.294734       32.436977       25.594536 # H2  
168  42   3 -1.051740  14.246186       33.263539       25.938629 # M1  
169  43   1  0.000000  21.790436        1.204241       25.035447 # O1  
170  43   2  0.525870  22.445176        0.523042       25.188790 # H1  
171  43   2  0.525870  22.301921        1.999198       24.884927 # H2  
172  43   3 -1.051740  21.895208        1.214461       25.035700 # M1  
173  44   1  0.000000  19.514448       29.100989        7.162330 # O1  
174  44   2  0.525870  18.569864       29.012140        7.035449 # H1  
175  44   2  0.525870  19.657408       30.043521        7.248507 # H2  
176  44   3 -1.051740  19.442431       29.177683        7.158673 # M1  
177  45   1  0.000000  17.177945       16.812734       21.933846 # O1  
178  45   2  0.525870  16.280713       16.521345       22.096012 # H1  
179  45   2  0.525870  17.130342       17.768047       21.970480 # H2  
180  45   3 -1.051740  17.093062       16.872380       21.951706 # M1  
181  46   1  0.000000  30.849919       14.096753       24.010066 # O1  
182  46   2  0.525870  31.179565       13.218272       23.820764 # H1  
183  46   2  0.525870  31.637068       14.625338       24.141307 # H2  
184  46   3 -1.051740  30.950250       14.065319       24.004850 # M1  
185  47   1  0.000000  10.465487        2.047031        8.604436 # O1
186  47   2  0.525870   9.754739        1.794273        8.015215 # H1
187  47   2  0.525870  10.868973        2.805447        8.182257 # H2
188  47   3 -1.051740  10.437883        2.092459        8.513573 # M1
189  48   1  0.000000  25.004389       25.044969        5.373422 # O1  
190  48   2  0.525870  24.696395       25.942541        5.498858 # H1  
191  48   2  0.525870  24.478007       24.709853        4.647577 # H2  
192  48   3 -1.051740  24.929430       25.095499        5.319482 # M1  
193  49   1  0.000000  32.056027       26.900923       22.808119 # O1  
194  49   2  0.525870  32.064681       25.993748       22.502848 # H1  
195  49   2  0.525870  31.420223       27.338569       22.242037 # H2  
196  49   3 -1.051740  31.999685       26.858741       22.729837 # M1  
197  50   1  0.000000   1.322468        5.833428       10.392259 # O1
198  50   2  0.525870   2.129056        5.416288       10.089539 # H1
199  50   2  0.525870   0.645491        5.169278       10.262495 # H2
200  50   3 -1.051740   1.334112        5.736286       10.353405 # M1
201  51   1  0.000000  18.560451       12.933797        1.858168 # O1  
202  51   2  0.525870  18.091082       12.658014        2.645485 # H1  
203  51   2  0.525870  18.352971       12.262914        1.207708 # H2  
204  51   3 -1.051740  18.499643       12.848750        1.870463 # M1  
205  52   1  0.000000   7.908294        5.627099       15.291131 # O1
206  52   2  0.525870   7.386185        4.934072       14.886969 # H1
207  52   2  0.525870   7.672205        6.418573       14.807331 # H2
208  52   3 -1.051740   7.840178        5.635943       15.211357 # M1
209  53   1  0.000000  17.578712       18.756912       34.670988 # O1  
210  53   2  0.525870  16.893680       19.392231       34.879149 # H1  
211  53   2  0.525870  18.383856       19.155098       35.001779 # H2  
212  53   3 -1.051740  17.589503       18.849761       34.719407 # M1  
213  54   1  0.000000  25.351991       15.266433       17.604876 # O1  
214  54   2  0.525870  24.659604       14.805823       17.130883 # H1  
215  54   2  0.525870  26.160700       14.837770       17.324754 # H2  
216  54   3 -1.051740  25.362441       15.186542       17.537127 # M1  
217  55   1  0.000000  19.247391       22.819978       36.991950 # O1  
218  55   2  0.525870  19.615822       22.199506       37.620842 # H1  
219  55   2  0.525870  19.225846       22.338928       36.164691 # H2  
220  55   3 -1.051740  19.278555       22.721018       36.974129 # M1  
221  56   1  0.000000  37.633917       32.121390       31.078985 # O1  
222  56   2  0.525870  37.995662       32.935361       31.429446 # H1  
223  56   2  0.525870  37.115043       31.760304       31.797747 # H2  
224  56   3 -1.051740  37.619801       32.162077       31.175043 # M1  
225  57   1  0.000000  11.380087       31.418676       25.950012 # O1  
226  57   2  0.525870  12.259925       31.125819       25.712629 # H1  
227  57   2  0.525870  11.488375       32.341292       26.180849 # H2  
228  57   3 -1.051740  11.468859       31.475253       25.949424 # M1  
229  58   1  0.000000  13.692611       24.496191        7.493978 # O1  
230  58   2  0.525870  14.283977       25.245670        7.563253 # H1  
231  58   2  0.525870  13.880796       23.969411        8.270715 # H2  
232  58   3 -1.051740  13.762645       24.516198        7.569983 # M1  
233  59   1  0.000000  11.227355       24.161021        7.487581 # O1  
234  59   2  0.525870  11.017406       24.850924        8.117015 # H1  
235  59   2  0.525870  11.743990       23.529101        7.987578 # H2  
236  59   3 -1.051740  11.254907       24.166231        7.589048 # M1  
237  60   1  0.000000  16.480517       23.129371       17.931918 # O1  
238  60   2  0.525870  16.970897       23.942595       18.052026 # H1  
239  60   2  0.525870  15.923613       23.295061       17.171237 # H2  
240  60   3 -1.051740  16.474541       23.217315       17.874370 # M1  
241  61   1  0.000000  37.133638       36.621272        1.700757 # O1  
242  61   2  0.525870  37.541384       37.215135        1.070440 # H1  
243  61   2  0.525870  36.195302       36.791645        1.618720 # H2  
244  61   3 -1.051740  37.085970       36.689930        1.636760 # M1  
245  62   1  0.000000   3.542673       27.691632        2.304156 # O1
246  62   2  0.525870   3.191653       28.185873        1.563385 # H1
247  62   2  0.525870   4.422666       28.045415        2.433311 # H2
248  62   3 -1.051740   3.590195       27.767817        2.249210 # M1
249  63   1  0.000000   7.967446        7.779857        4.245281 # O1
250  63   2  0.525870   7.479497        6.956374        4.241796 # H1
251  63   2  0.525870   7.292600        8.458663        4.251249 # H2
252  63   3 -1.051740   7.862982        7.766859        4.245504 # M1
253  64   1  0.000000   4.579510       29.906727        0.865294 # O1
254  64   2  0.525870   4.533819       30.712704        0.350957 # H1
255  64   2  0.525870   5.424255       29.521248        0.632821 # H2
256  64   3 -1.051740   4.651296       29.944504        0.798201 # M1
257  65   1  0.000000  35.285882        5.640546       10.217529 # O1
258  65   2  0.525870  34.485160        5.125776       10.317968 # H1  
259  65   2  0.525870  34.985185        6.548816       10.188257 # H2
260  65   3 -1.051740  35.186932        5.675897       10.223923 # M1  
261  66   1  0.000000  15.032854       21.436149       16.050373 # O1  
262  66   2  0.525870  15.905987       21.128299       16.293474 # H1  
263  66   2  0.525870  14.453318       21.063224       16.714675 # H2  
264  66   3 -1.051740  15.059230       21.374989       16.131893 # M1  
265  67   1  0.000000  28.233734        8.502234       10.234360 # O1  
266  67   2  0.525870  28.052581        7.738683        9.686267 # H1
267  67   2  0.525870  28.079646        9.252109        9.659751 # H2
268  67   3 -1.051740  28.203616        8.501005       10.133497 # M1  
269  68   1  0.000000  22.269630       33.899611        4.644779 # O1  
270  68   2  0.525870  21.508427       33.321881        4.589746 # H1  
271  68   2  0.525870  21.914709       34.736234        4.945319 # H2  
272  68   3 -1.051740  22.169359       33.922870        4.666835 # M1  
273  69   1  0.000000  24.705152       28.050391       15.832506 # O1  
274  69   2  0.525870  25.468504       28.079789       16.409273 # H1  
275  69   2  0.525870  24.968637       27.474376       15.114862 # H2  
276  69   3 -1.051740  24.797402       28.001284       15.819850 # M1  
277  70   1  0.000000  11.450284       24.422745       30.079302 # O1  
278  70   2  0.525870  12.271037       24.885528       29.910697 # H1  
279  70   2  0.525870  11.665722       23.498580       29.953854 # H2  
280  70   3 -1.051740  11.543375       24.381295       30.052885 # M1  
281  71   1  0.000000  12.687285        4.769097       12.482795 # O1  
282  71   2  0.525870  13.483109        4.854546       11.957825 # H1  
283  71   2  0.525870  12.836858        5.336030       13.239396 # H2  
284  71   3 -1.051740  12.772219        4.827706       12.503605 # M1  
285  72   1  0.000000  25.805189       10.747360       21.266969 # O1  
286  72   2  0.525870  24.913962       10.461773       21.066008 # H1  
287  72   2  0.525870  26.217032        9.982977       21.669876 # H2  
288  72   3 -1.051740  25.762122       10.653032       21.285111 # M1  
289  73   1  0.000000   2.229025       21.484458       17.312323 # O1  
290  73   2  0.525870   2.688428       21.859897       18.063473 # H1  
291  73   2  0.525870   1.492892       22.077150       17.160484 # H2  
292  73   3 -1.051740   2.204164       21.571433       17.366165 # M1  
293  74   1  0.000000  32.338832       21.646994       28.279342 # O1  
294  74   2  0.525870  32.887379       22.247033       27.774088 # H1  
295  74   2  0.525870  32.674758       20.776659       28.065097 # H2  
296  74   3 -1.051740  32.418292       21.622711       28.214703 # M1  
297  75   1  0.000000  11.484369       27.082722        5.320378 # O1  
298  75   2  0.525870  11.896912       26.260960        5.054397 # H1  
299  75   2  0.525870  10.925337       27.320989        4.580822 # H2  
300  75   3 -1.051740  11.471209       27.030301        5.230042 # M1  
301  76   1  0.000000   7.392701       35.348174       24.870643 # O1  
302  76   2  0.525870   7.774566       34.889959       24.122011 # H1  
303  76   2  0.525870   6.908894       34.671825       25.344682 # H2  
304  76   3 -1.051740   7.383542       35.246246       24.845974 # M1  
305  77   1  0.000000  32.227395       16.298026        0.418395 # O1  
306  77   2  0.525870  32.527571       15.705682        1.107782 # H1  
307  77   2  0.525870  31.503949       15.831745       -0.000460 # H2  
308  77   3 -1.051740  32.189369       16.202920        0.442699 # M1  
309  78   1  0.000000  25.965678        9.741218       32.381651 # O1  
310  78   2  0.525870  25.281647        9.829468       33.045387 # H1  
311  78   2  0.525870  25.649783        9.047924       31.802183 # H2  
312  78   3 -1.051740  25.875846        9.686862       32.389222 # M1  
313  79   1  0.000000   7.805536       18.860915        9.189369 # O1
314  79   2  0.525870   8.687228       18.509971        9.064115 # H1
315  79   2  0.525870   7.446336       18.353323        9.917075 # H2
316  79   3 -1.051740   7.852476       18.783785        9.243492 # M1
317  80   1  0.000000  15.104994        4.258500        7.891231 # O1
318  80   2  0.525870  16.034680        4.450138        7.767986 # H1
319  80   2  0.525870  14.672285        5.108727        7.813075 # H2
320  80   3 -1.051740  15.149642        4.352100        7.873138 # M1
321  81   1  0.000000   5.587902       15.223185       24.444677 # O1  
322  81   2  0.525870   5.102112       14.751337       23.768216 # H1  
323  81   2  0.525870   5.692092       16.107239       24.092791 # H2  
324  81   3 -1.051740   5.553620       15.260217       24.352291 # M1  
325  82   1  0.000000  34.327019       20.910328       12.806839 # O1  
326  82   2  0.525870  34.197999       20.853657       13.753609 # H1  
327  82   2  0.525870  34.432259       21.845996       12.634557 # H2  
328  82   3 -1.051740  34.324883       20.989297       12.876419 # M1  
329  83   1  0.000000   0.587132       29.773408       33.296169 # O1  
330  83   2  0.525870  -0.000022       30.529362       33.300049 # H1  
331  83   2  0.525870   0.002542       29.015465       33.298944 # H2  
332  83   3 -1.051740   0.481864       29.773229       33.296767 # M1  
333  84   1  0.000000  30.697922        3.957132       18.052972 # O1  
334  84   2  0.525870  31.548496        3.897588       17.617990 # H1  
335  84   2  0.525870  30.444002        4.875229       17.958878 # H2  
336  84   3 -1.051740  30.751525        4.034263       18.005440 # M1  
337  85   1  0.000000   5.357617        8.729460        6.160196 # O1
338  85   2  0.525870   6.302952        8.589353        6.214442 # H1
339  85   2  0.525870   4.982786        7.849013        6.183576 # H2
340  85   3 -1.051740   5.408871        8.637775        6.167170 # M1
341  86   1  0.000000  25.362615       12.007285       11.644045 # O1  
342  86   2  0.525870  25.734180       11.628252       12.440603 # H1  
343  86   2  0.525870  25.309436       12.945362       11.826839 # H2  
344  86   3 -1.051740  25.391219       12.057509       11.732029 # M1  
345  87   1  0.000000   3.381662       30.328843       30.090365 # O1  
346  87   2  0.525870   3.206359       29.511304       29.624392 # H1  
347  87   2  0.525870   2.545938       30.556983       30.497486 # H2  
348  87   3 -1.051740   3.290832       30.275892       30.085077 # M1  
349  88   1  0.000000   0.000206        2.224234       12.936950 # O1  
350  88   2  0.525870   0.023567        3.181147       12.938358 # H1
351  88   2  0.525870   0.896405        1.961987       13.147391 # H2
352  88   3 -1.051740   0.082819        2.286642       12.955982 # M1
353  89   1  0.000000   2.445048        5.650936       32.143462 # O1
354  89   2  0.525870   1.494376        5.577512       32.059420 # H1
355  89   2  0.525870   2.766506        4.757697       32.020911 # H2
356  89   3 -1.051740   2.388520        5.564092       32.124902 # M1
357  90   1  0.000000   5.290843        2.251104       25.661137 # O1
358  90   2  0.525870   4.800178        1.502162       25.322662 # H1
359  90   2  0.525870   5.499567        2.771645       24.885442 # H2
360  90   3 -1.051740   5.265513        2.230585       25.561041 # M1
361  91   1  0.000000  20.606009       33.179158       34.640938 # O1  
362  91   2  0.525870  20.184487       33.925741       34.215304 # H1  
363  91   2  0.525870  21.380796       33.004356       34.106728 # H2  
364  91   3 -1.051740  20.637746       33.230526       34.554706 # M1  
365  92   1  0.000000  35.134079       12.454444       27.981125 # O1  
366  92   2  0.525870  36.089145       12.511712       27.952852 # H1  
367  92   2  0.525870  34.955551       11.553321       28.250077 # H2  
368  92   3 -1.051740  35.203842       12.378633       28.002748 # M1  
369  93   1  0.000000  32.272363        4.547538       23.664861 # O1  
370  93   2  0.525870  31.334197        4.737208       23.654779 # H1  
371  93   2  0.525870  32.329979        3.636740       23.953579 # H2  
372  93   3 -1.051740  32.193255        4.482753       23.689893 # M1  
373  94   1  0.000000  21.533276        1.649385       21.904291 # O1  
374  94   2  0.525870  22.023659        2.469153       21.843162 # H1  
375  94   2  0.525870  22.206109        0.970740       21.958775 # H2  
376  94   3 -1.051740  21.637778        1.662063       21.903694 # M1  
377  95   1  0.000000   5.243897       25.901787        2.384269 # O1
378  95   2  0.525870   4.628558       25.910826        3.117418 # H1
379  95   2  0.525870   5.954105       26.481332        2.659882 # H2
380  95   3 -1.051740   5.252420       25.954665        2.474895 # M1
381  96   1  0.000000   4.727772        6.464847       25.135454 # O1
382  96   2  0.525870   5.348076        7.050591       25.569456 # H1
383  96   2  0.525870   4.045636        6.310778       25.789047 # H2
384  96   3 -1.051740   4.722217        6.503628       25.233162 # M1
385  97   1  0.000000  35.722736       19.797398       16.213895 # O1  
386  97   2  0.525870  34.997940       20.015876       15.628089 # H1  
387  97   2  0.525870  35.345156       19.184215       16.844507 # H2  
388  97   3 -1.051740  35.623699       19.761938       16.217921 # M1  
389  98   1  0.000000  15.009675       33.277738       33.689860 # O1  
390  98   2  0.525870  15.799990       33.310398       33.150818 # H1  
391  98   2  0.525870  15.323220       33.034752       34.560996 # H2  
392  98   3 -1.051740  15.108844       33.258843       33.719695 # M1  
393  99   1  0.000000  25.250511       37.431867       20.540361 # O1  
394  99   2  0.525870  26.019472       37.996974       20.615100 # H1  
395  99   2  0.525870  24.510971       38.004939       20.742599 # H2  
396  99   3 -1.051740  25.253154       37.534120       20.565244 # M1  
397  100  1  0.000000  34.179889       27.925920       24.234784 # O1  
398  100  2  0.525870  33.654336       28.244236       23.500823 # H1  
399  100  2  0.525870  33.624646       27.274107       24.662659 # H2  
400  100  3 -1.051740  34.082791       27.895959       24.207286 # M1  
401  101  1  0.000000   6.603250       18.885755       18.357424 # O1  
402  101  2  0.525870   7.547866       19.026684       18.293617 # H1  
403  101  2  0.525870   6.505874       17.935383       18.416936 # H2  