LAMMPS data file for the TIP4P-2005 water model (explicit)

 8000 atoms
 0 bonds
 0 angles
 0 dihedrals
 0 impropers

 3 atom types
 0 bond types
 0 angle types
 0 dihedral types
 0 improper types

0.000000 39.115000 xlo xhi
0.000000 39.115000 ylo yhi
0.000000 39.115000 zlo zhi

Masses

   1   15.999  # O
   2    1.008  # H
   3    1.e-16 # M

# Pair Coeffs
#
# 1  H1
# 2  H2
# 3  M1
# 4  O1

# Bond Coeffs
#
# 1    500.000000   0.957200   # O-H
# 2    500.000000   0.154600   # O-M

# Angle Coeffs
#
# 1  H1-M1-H2
# 2  H1-M1-O1
# 3  50.000000  104.520000    H1-O1-H2
# 4  H1-O1-M1
# 5  H2-M1-O1
# 6  H2-O1-M1
# 7  M1-H1-O1
# 8  M1-H2-O1

 Atoms # full

1 1 1  0.000000 24.400999 14.289000 36.813999 # O1 
2 1 2  0.556400 24.445000 15.209000 37.077999 # H1 
3 1 2  0.556400 25.143999 14.174000 36.221001 # H2 
4 1 3 -1.112800 24.504999 14.396000 36.770000 # M1 
5 2 1  0.000000 36.251999 8.863000 22.905001 # O1 
6 2 2  0.556400 37.153999 8.841000 23.225000 # H1 
7 2 2  0.556400 36.188999 9.687000 22.423000 # H2 
8 2 3 -1.112800 36.362999 8.969000 22.884001 # M1 
9 3 1  0.000000 3.132000 33.506001 9.067000 # O1 
10 3 2  0.556400 2.183000 33.508999 8.940000 # H1 
11 3 2  0.556400 3.367000 32.578999 9.102000 # H2 
12 3 3 -1.112800 3.038000 33.383999 9.055000 # M1 
13 4 1  0.000000 5.049000 34.953999 9.195000 # O1 
14 4 2  0.556400 5.748000 35.605000 9.132000 # H1 
15 4 2  0.556400 4.270000 35.405998 8.870000 # H2 
16 4 3 -1.112800 5.038000 35.099998 9.144000 # M1 
17 5 1  0.000000 30.733000 34.907001 17.172001 # O1 
18 5 2  0.556400 31.673000 34.735001 17.223000 # H1 
19 5 2  0.556400 30.664000 35.861000 17.157000 # H2 
20 5 3 -1.112800 30.848000 35.009998 17.176001 # M1 
21 6 1  0.000000 9.430000 0.505000 25.643000 # O1 
22 6 2  0.556400 10.010000 0.227000 26.353001 # H1 
23 6 2  0.556400 10.021000 0.844000 24.969999 # H2 
24 6 3 -1.112800 9.585000 0.513000 25.648001 # M1 
25 7 1  0.000000 16.754000 1.542000 20.923000 # O1 
26 7 2  0.556400 17.490999 2.120000 21.124001 # H1 
27 7 2  0.556400 17.108000 0.659000 21.024000 # H2 
28 7 3 -1.112800 16.899000 1.502000 20.962999 # M1 
29 8 1  0.000000 28.452999 30.358000 18.656000 # O1 
30 8 2  0.556400 29.403999 30.466999 18.681000 # H1 
31 8 2  0.556400 28.111000 31.139000 19.093000 # H2 
32 8 3 -1.112800 28.534000 30.476000 18.716999 # M1 
33 9 1  0.000000 7.480000 22.025000 17.920000 # O1 
34 9 2  0.556400 8.288000 21.566999 18.150999 # H1 
35 9 2  0.556400 7.767000 22.898001 17.653999 # H2 
36 9 3 -1.112800 7.624000 22.080000 17.915001 # M1 
37 10 1  0.000000 34.557999 27.157000 33.432999 # O1 
38 10 2  0.556400 34.240002 26.556999 34.109001 # H1 
39 10 2  0.556400 33.949001 27.895000 33.460999 # H2 
40 10 3 -1.112800 34.436001 27.174999 33.526001 # M1 
41 11 1  0.000000 5.733000 3.184000 30.275999 # O1 
42 11 2  0.556400 5.652000 3.032000 31.218000 # H1 
43 11 2  0.556400 5.658000 2.313000 29.886000 # H2 
44 11 3 -1.112800 5.712000 3.048000 30.349001 # M1 
45 12 1  0.000000 11.811000 16.934999 29.909000 # O1 
46 12 2  0.556400 11.017000 16.424999 30.063999 # H1 
47 12 2  0.556400 11.522000 17.673000 29.371000 # H2 
48 12 3 -1.112800 11.668000 16.965000 29.858000 # M1 
49 13 1  0.000000 15.231000 25.159000 18.396000 # O1 
50 13 2  0.556400 15.922000 25.032000 17.745001 # H1 
51 13 2  0.556400 15.346000 24.436001 19.011999 # H2 
52 13 3 -1.112800 15.338000 25.047001 18.391001 # M1 
53 14 1  0.000000 28.077000 10.962000 13.550000 # O1 
54 14 2  0.556400 28.292999 10.030000 13.581000 # H1 
55 14 2  0.556400 27.169001 11.007000 13.849000 # H2 
56 14 3 -1.112800 27.986000 10.844000 13.594000 # M1 
57 15 1  0.000000 21.396999 10.079000 11.460000 # O1 
58 15 2  0.556400 21.510000 9.142000 11.303000 # H1 
59 15 2  0.556400 21.396999 10.471000 10.587000 # H2 
60 15 3 -1.112800 21.412001 10.007000 11.324000 # M1 
61 16 1  0.000000 18.228001 22.518999 3.827000 # O1 
62 16 2  0.556400 17.451000 23.075001 3.897000 # H1 
63 16 2  0.556400 18.964001 23.129999 3.855000 # H2 
64 16 3 -1.112800 18.222000 22.673000 3.840000 # M1 
65 17 1  0.000000 29.816000 5.557000 36.076000 # O1 
66 17 2  0.556400 29.941999 5.783000 35.154999 # H1 
67 17 2  0.556400 30.166000 4.670000 36.157001 # H2 
68 17 3 -1.112800 29.879000 5.470000 35.965000 # M1 
69 18 1  0.000000 31.554001 19.704000 31.318001 # O1 
70 18 2  0.556400 31.747000 18.865999 31.740000 # H1 
71 18 2  0.556400 30.627001 19.857000 31.500999 # H2 
72 18 3 -1.112800 31.457001 19.613001 31.398001 # M1 
73 19 1  0.000000 14.310000 28.801001 3.193000 # O1 
74 19 2  0.556400 14.086000 27.982000 3.636000 # H1 
75 19 2  0.556400 15.178000 28.642000 2.821000 # H2 
76 19 3 -1.112800 14.395000 28.671000 3.202000 # M1 
77 20 1  0.000000 30.423000 7.749000 7.428000 # O1 
78 20 2  0.556400 30.799000 6.948000 7.061000 # H1 
79 20 2  0.556400 30.983999 7.957000 8.175000 # H2 
80 20 3 -1.112800 30.547001 7.670000 7.478000 # M1 
81 21 1  0.000000 0.096000 29.846001 29.384001 # O1 
82 21 2  0.556400 0.393000 30.294001 30.176001 # H1 
83 21 2  0.556400 0.561000 29.010000 29.393000 # H2 
84 21 3 -1.112800 0.197000 29.795000 29.490000 # M1 
85 22 1  0.000000 2.468000 18.504000 0.059000 # O1 
86 22 2  0.556400 1.565000 18.820000 0.040000 # H1 
87 22 2  0.556400 2.388000 17.552000 0.120000 # H2 
88 22 3 -1.112800 2.338000 18.419001 0.064000 # M1 
89 23 1  0.000000 3.337000 36.092999 17.135000 # O1 
90 23 2  0.556400 2.891000 35.270000 17.334000 # H1 
91 23 2  0.556400 4.253000 35.845001 17.004999 # H2 
92 23 3 -1.112800 3.399000 35.951000 17.143999 # M1 
93 24 1  0.000000 30.856001 1.774000 30.653999 # O1 
94 24 2  0.556400 31.158001 2.683000 30.646999 # H1 
95 24 2  0.556400 31.646000 1.258000 30.495001 # H2 
96 24 3 -1.112800 31.000999 1.826000 30.632000 # M1 
97 25 1  0.000000 10.326000 13.768000 4.932000 # O1 
98 25 2  0.556400 11.149000 13.280000 4.940000 # H1 
99 25 2  0.556400 10.592000 14.688000 4.939000 # H2 
100 25 3 -1.112800 10.470000 13.825000 4.934000 # M1 
101 26 1  0.000000 14.099000 12.571000 7.878000 # O1 
102 26 2  0.556400 14.258000 13.482000 7.633000 # H1 
103 26 2  0.556400 14.947000 12.254000 8.189000 # H2 
104 26 3 -1.112800 14.232000 12.649000 7.887000 # M1 
105 27 1  0.000000 13.587000 15.378000 3.823000 # O1 
106 27 2  0.556400 12.803000 15.851000 3.546000 # H1 
107 27 2  0.556400 14.280000 16.038000 3.820000 # H2 
108 27 3 -1.112800 13.575000 15.528000 3.786000 # M1 
109 28 1  0.000000 26.326000 8.642000 18.646999 # O1 
110 28 2  0.556400 25.766001 8.009000 18.197001 # H1 
111 28 2  0.556400 26.855000 9.031000 17.950001 # H2 
112 28 3 -1.112800 26.322001 8.609000 18.495001 # M1 
113 29 1  0.000000 4.625000 24.292999 30.632000 # O1 
114 29 2  0.556400 5.031000 23.936001 29.841999 # H1 
115 29 2  0.556400 4.839000 23.660999 31.318001 # H2 
116 29 3 -1.112800 4.707000 24.162001 30.618000 # M1 
117 30 1  0.000000 2.191000 1.854000 34.416000 # O1 
118 30 2  0.556400 1.778000 2.714000 34.502998 # H1 
119 30 2  0.556400 3.125000 2.044000 34.331001 # H2 
120 30 3 -1.112800 2.260000 1.993000 34.416000 # M1 
121 31 1  0.000000 10.762000 11.504000 0.364000 # O1 
122 31 2  0.556400 10.385000 10.624000 0.376000 # H1 
123 31 2  0.556400 10.004000 12.089000 0.381000 # H2 
124 31 3 -1.112800 10.612000 11.465000 0.368000 # M1 
125 32 1  0.000000 20.575001 13.497000 11.036000 # O1 
126 32 2  0.556400 20.687000 12.632000 10.641000 # H1 
127 32 2  0.556400 21.372000 13.973000 10.802000 # H2 
128 32 3 -1.112800 20.695000 13.446000 10.953000 # M1 
129 33 1  0.000000 29.448000 35.452000 28.414000 # O1 
130 33 2  0.556400 29.212999 34.523998 28.400999 # H1 
131 33 2  0.556400 28.615000 35.911999 28.309000 # H2 
132 33 3 -1.112800 29.306999 35.389999 28.398001 # M1 
133 34 1  0.000000 6.322000 32.140999 27.766001 # O1 
134 34 2  0.556400 6.089000 32.737999 28.476999 # H1 
135 34 2  0.556400 5.590000 31.527000 27.718000 # H2 
136 34 3 -1.112800 6.194000 32.139000 27.853001 # M1 
137 35 1  0.000000 6.174000 13.095000 20.577000 # O1 
138 35 2  0.556400 5.981000 13.795000 21.201000 # H1 
139 35 2  0.556400 6.875000 12.591000 20.990999 # H2 
140 35 3 -1.112800 6.241000 13.121000 20.714001 # M1 
141 36 1  0.000000 34.028000 5.864000 13.909000 # O1 
142 36 2  0.556400 33.294998 6.360000 13.542000 # H1 
143 36 2  0.556400 34.237999 5.215000 13.238000 # H2 
144 36 3 -1.112800 33.959000 5.844000 13.772000 # M1 
145 37 1  0.000000 35.042000 8.420000 16.900999 # O1 
146 37 2  0.556400 34.244999 8.900000 17.127001 # H1 
147 37 2  0.556400 35.147999 7.783000 17.607000 # H2 
148 37 3 -1.112800 34.951000 8.399000 17.024000 # M1 
149 38 1  0.000000 27.752001 25.695999 24.129999 # O1 
150 38 2  0.556400 26.993000 26.216000 24.393000 # H1 
151 38 2  0.556400 28.128000 26.177999 23.393000 # H2 
152 38 3 -1.112800 27.702000 25.829000 24.066999 # M1 
153 39 1  0.000000 22.926001 7.757000 34.705002 # O1 
154 39 2  0.556400 23.521000 8.505000 34.640999 # H1 
155 39 2  0.556400 22.240999 8.047000 35.307999 # H2 
156 39 3 -1.112800 22.914000 7.895000 34.776001 # M1 
157 40 1  0.000000 19.742001 20.816000 9.769000 # O1 
158 40 2  0.556400 19.006001 20.236000 9.573000 # H1 
159 40 2  0.556400 19.349001 21.687000 9.840000 # H2 
160 40 3 -1.112800 19.593000 20.855000 9.753000 # M1 
161 41 1  0.000000 0.832000 9.048000 29.155001 # O1 
162 41 2  0.556400 -0.000000 8.580000 29.219999 # H1 
163 41 2  0.556400 0.589000 9.974000 29.181000 # H2 
164 41 3 -1.112800 0.690000 9.109000 29.167000 # M1 
165 42 1  0.000000 14.451000 34.014999 25.337999 # O1 
166 42 2  0.556400 14.286000 33.210999 24.846001 # H1 
167 42 2  0.556400 15.392000 33.997002 25.516001 # H2 
168 42 3 -1.112800 14.554000 33.905998 25.296000 # M1 
169 43 1  0.000000 21.705000 1.145000 24.757999 # O1 
170 43 2  0.556400 20.933001 0.912000 24.242001 # H1 
171 43 2  0.556400 21.992001 1.983000 24.395000 # H2 
172 43 3 -1.112800 21.641001 1.225000 24.642000 # M1 
173 44 1  0.000000 19.285000 28.238001 7.033000 # O1 
174 44 2  0.556400 19.487000 29.128000 7.322000 # H1 
175 44 2  0.556400 18.660999 28.354000 6.317000 # H2 
176 44 3 -1.112800 19.229000 28.371000 6.976000 # M1 
177 45 1  0.000000 15.733000 17.464001 21.920000 # O1 
178 45 2  0.556400 15.266000 16.881001 21.322001 # H1 
179 45 2  0.556400 15.489000 18.344999 21.635000 # H2 
180 45 3 -1.112800 15.639000 17.504000 21.802999 # M1 
181 46 1  0.000000 30.754000 14.001000 23.584999 # O1 
182 46 2  0.556400 31.562000 13.522000 23.400999 # H1 
183 46 2  0.556400 30.062000 13.344000 23.500000 # H2 
184 46 3 -1.112800 30.768999 13.851000 23.549000 # M1 
185 47 1  0.000000 10.790000 1.827000 8.060000 # O1 
186 47 2  0.556400 10.296000 1.946000 8.871000 # H1 
187 47 2  0.556400 10.260000 1.219000 7.543000 # H2 
188 47 3 -1.112800 10.655000 1.762000 8.099000 # M1 
189 48 1  0.000000 24.378000 24.481001 4.843000 # O1 
190 48 2  0.556400 23.834999 23.799000 4.446000 # H1 
191 48 2  0.556400 23.990999 25.302000 4.540000 # H2 
192 48 3 -1.112800 24.254999 24.499001 4.751000 # M1 
193 49 1  0.000000 30.879000 26.118999 21.565001 # O1 
194 49 2  0.556400 31.111000 26.785000 22.212000 # H1 
195 49 2  0.556400 31.419001 25.363001 21.795000 # H2 
196 49 3 -1.112800 30.981001 26.107000 21.681000 # M1 
197 50 1  0.000000 1.206000 5.533000 10.456000 # O1 
198 50 2  0.556400 0.420000 5.550000 9.908000 # H1 
199 50 2  0.556400 1.744000 4.836000 10.080000 # H2 
200 50 3 -1.112800 1.173000 5.443000 10.334000 # M1 
201 51 1  0.000000 18.099001 12.698000 1.448000 # O1 
202 51 2  0.556400 18.612000 12.177000 2.065000 # H1 
203 51 2  0.556400 18.120001 12.196000 0.633000 # H2 
204 51 3 -1.112800 18.169001 12.563000 1.422000 # M1 
205 52 1  0.000000 8.429000 5.403000 14.418000 # O1 
206 52 2  0.556400 8.517000 5.964000 15.189000 # H1 
207 52 2  0.556400 7.635000 4.894000 14.581000 # H2 
208 52 3 -1.112800 8.336000 5.410000 14.541000 # M1 
209 53 1  0.000000 16.544001 18.854000 34.723999 # O1 
210 53 2  0.556400 17.025999 18.049000 34.535999 # H1 
211 53 2  0.556400 17.222000 19.523001 34.823002 # H2 
212 53 3 -1.112800 16.697001 18.836000 34.712002 # M1 
213 54 1  0.000000 24.502001 14.523000 16.879999 # O1 
214 54 2  0.556400 25.108999 14.799000 17.566999 # H1 
215 54 2  0.556400 24.014000 13.797000 17.268999 # H2 
216 54 3 -1.112800 24.518000 14.464000 17.021999 # M1 
217 55 1  0.000000 19.171000 21.877001 36.430000 # O1 
218 55 2  0.556400 18.813000 22.683001 36.801998 # H1 
219 55 2  0.556400 19.646999 21.469000 37.153000 # H2 
220 55 3 -1.112800 19.187000 21.930000 36.574001 # M1 
221 56 1  0.000000 36.840000 30.802000 31.083000 # O1 
222 56 2  0.556400 36.612999 31.655001 30.711000 # H1 
223 56 2  0.556400 36.629002 30.174999 30.392000 # H2 
224 56 3 -1.112800 36.782001 30.832001 30.941999 # M1 
225 57 1  0.000000 12.492000 28.965000 25.879000 # O1 
226 57 2  0.556400 11.682000 29.372999 25.572001 # H1 
227 57 2  0.556400 12.200000 28.260000 26.457001 # H2 
228 57 3 -1.112800 12.346000 28.926001 25.915001 # M1 
229 58 1  0.000000 13.424000 23.731001 7.345000 # O1 
230 58 2  0.556400 13.625000 24.514000 6.832000 # H1 
231 58 2  0.556400 14.276000 23.419001 7.650000 # H2 
232 58 3 -1.112800 13.563000 23.792999 7.317000 # M1 
233 59 1  0.000000 11.193000 23.841999 7.834000 # O1 
234 59 2  0.556400 10.518000 23.167999 7.756000 # H1 
235 59 2  0.556400 10.708000 24.649000 8.009000 # H2 
236 59 3 -1.112800 11.039000 23.860001 7.847000 # M1 
237 60 1  0.000000 15.546000 22.212000 18.049000 # O1 
238 60 2  0.556400 15.404000 22.919001 17.419001 # H1 
239 60 2  0.556400 16.362000 21.798000 17.766001 # H2 
240 60 3 -1.112800 15.635000 22.250999 17.929001 # M1 
241 61 1  0.000000 36.493000 35.549000 0.766000 # O1 
242 61 2  0.556400 36.462002 34.602001 0.632000 # H1 
243 61 2  0.556400 35.577000 35.826000 0.738000 # H2 
244 61 3 -1.112800 36.368000 35.460999 0.744000 # M1 
245 62 1  0.000000 2.817000 27.398001 1.971000 # O1 
246 62 2  0.556400 3.731000 27.641001 2.124000 # H1 
247 62 2  0.556400 2.577000 26.875000 2.737000 # H2 
248 62 3 -1.112800 2.906000 27.361000 2.093000 # M1 
249 63 1  0.000000 7.737000 7.712000 4.444000 # O1 
250 63 2  0.556400 7.929000 6.841000 4.095000 # H1 
251 63 2  0.556400 7.228000 8.140000 3.756000 # H2 
252 63 3 -1.112800 7.695000 7.653000 4.307000 # M1 
253 64 1  0.000000 5.004000 29.318001 0.330000 # O1 
254 64 2  0.556400 4.129000 28.930000 0.359000 # H1 
255 64 2  0.556400 4.856000 30.221001 0.049000 # H2 
256 64 3 -1.112800 4.869000 29.386000 0.297000 # M1 
257 65 1  0.000000 33.763000 6.320000 9.714000 # O1 
258 65 2  0.556400 34.485001 6.793000 10.128000 # H1 
259 65 2  0.556400 34.171001 5.539000 9.340000 # H2 
260 65 3 -1.112800 33.912998 6.279000 9.720000 # M1 
261 66 1  0.000000 14.503000 21.273001 16.271999 # O1 
262 66 2  0.556400 15.366000 21.284000 15.858000 # H1 
263 66 2  0.556400 14.206000 20.367001 16.183001 # H2 
264 66 3 -1.112800 14.578000 21.153999 16.205999 # M1 
265 67 1  0.000000 27.848000 8.488000 9.438000 # O1 
266 67 2  0.556400 28.573000 8.798000 8.896000 # H1 
267 67 2  0.556400 28.125999 8.667000 10.337000 # H2 
268 67 3 -1.112800 27.980000 8.553000 9.485000 # M1 
269 68 1  0.000000 21.712999 33.057999 4.737000 # O1 
270 68 2  0.556400 20.900000 33.563999 4.753000 # H1 
271 68 2  0.556400 21.426001 32.145000 4.722000 # H2 
272 68 3 -1.112800 21.566999 33.004002 4.737000 # M1 
273 69 1  0.000000 24.681000 26.875000 15.591000 # O1 
274 69 2  0.556400 24.613001 26.726000 16.535000 # H1 
275 69 2  0.556400 24.483999 27.805000 15.481000 # H2 
276 69 3 -1.112800 24.646000 26.978001 15.701000 # M1 
277 70 1  0.000000 11.390000 24.097000 29.768999 # O1 
278 70 2  0.556400 12.226000 24.256001 29.330999 # H1 
279 70 2  0.556400 11.276000 23.146999 29.729000 # H2 
280 70 3 -1.112800 11.486000 23.993000 29.705999 # M1 
281 71 1  0.000000 13.390000 4.949000 12.200000 # O1 
282 71 2  0.556400 13.431000 4.081000 11.799000 # H1 
283 71 2  0.556400 13.025000 5.512000 11.517000 # H2 
284 71 3 -1.112800 13.347000 4.908000 12.057000 # M1 
285 72 1  0.000000 25.063000 10.818000 20.959000 # O1 
286 72 2  0.556400 25.500000 10.143000 20.440001 # H1 
287 72 2  0.556400 24.393000 10.345000 21.452000 # H2 
288 72 3 -1.112800 25.032000 10.666000 20.955000 # M1 
289 73 1  0.000000 2.004000 21.812000 16.792999 # O1 
290 73 2  0.556400 2.628000 21.625999 17.495001 # H1 
291 73 2  0.556400 1.488000 21.010000 16.712000 # H2 
292 73 3 -1.112800 2.018000 21.681999 16.875000 # M1 
293 74 1  0.000000 30.764999 20.902000 26.625999 # O1 
294 74 2  0.556400 30.698000 21.385000 27.450001 # H1 
295 74 2  0.556400 29.860001 20.809000 26.327999 # H2 
296 74 3 -1.112800 30.636000 20.954000 26.695999 # M1 
297 75 1  0.000000 10.962000 26.617001 4.731000 # O1 
298 75 2  0.556400 11.521000 25.892000 5.010000 # H1 
299 75 2  0.556400 10.545000 26.922001 5.536000 # H2 
300 75 3 -1.112800 10.981000 26.561001 4.874000 # M1 
301 76 1  0.000000 6.232000 34.332001 24.263000 # O1 
302 76 2  0.556400 7.012000 33.786999 24.157000 # H1 
303 76 2  0.556400 6.540000 35.223999 24.105000 # H2 
304 76 3 -1.112800 6.376000 34.377998 24.228001 # M1 
305 77 1  0.000000 31.514999 16.062000 0.756000 # O1 
306 77 2  0.556400 31.837999 15.220000 0.437000 # H1 
307 77 2  0.556400 31.080000 16.455000 -0.001000 # H2 
308 77 3 -1.112800 31.500000 16.003000 0.614000 # M1 
309 78 1  0.000000 25.107000 8.079000 31.489000 # O1 
310 78 2  0.556400 25.393999 7.748000 32.340000 # H1 
311 78 2  0.556400 25.690001 8.817000 31.309000 # H2 
312 78 3 -1.112800 25.222000 8.133000 31.577999 # M1 
313 79 1  0.000000 8.667000 18.403999 9.231000 # O1 
314 79 2  0.556400 8.639000 19.358000 9.151000 # H1 
315 79 2  0.556400 7.762000 18.125000 9.088000 # H2 
316 79 3 -1.112800 8.543000 18.493000 9.202000 # M1 
317 80 1  0.000000 14.843000 4.307000 7.952000 # O1 
318 80 2  0.556400 14.938000 3.793000 7.151000 # H1 
319 80 2  0.556400 15.182000 5.173000 7.724000 # H2 
320 80 3 -1.112800 14.900000 4.353000 7.816000 # M1 
321 81 1  0.000000 4.820000 15.570000 24.018000 # O1 
322 81 2  0.556400 5.769000 15.563000 24.145000 # H1 
323 81 2  0.556400 4.563000 14.650000 24.082001 # H2 
324 81 3 -1.112800 4.911000 15.447000 24.042999 # M1 
325 82 1  0.000000 32.522999 20.507000 13.171000 # O1 
326 82 2  0.556400 32.896000 20.138000 13.972000 # H1 
327 82 2  0.556400 32.228001 21.382000 13.424000 # H2 
328 82 3 -1.112800 32.533001 20.573999 13.311000 # M1 
329 83 1  0.000000 0.582000 29.325001 32.877998 # O1 
330 83 2  0.556400 -0.001000 28.646000 32.537998 # H1 
331 83 2  0.556400 -0.001000 29.948999 33.310001 # H2 
332 83 3 -1.112800 0.428000 29.318001 32.889999 # M1 
333 84 1  0.000000 30.093000 3.943000 17.400000 # O1 
334 84 2  0.556400 30.035999 4.899000 17.406000 # H1 
335 84 2  0.556400 31.021999 3.759000 17.261999 # H2 
336 84 3 -1.112800 30.208000 4.045000 17.382000 # M1 
337 85 1  0.000000 5.566000 8.530000 6.158000 # O1 
338 85 2  0.556400 5.218000 7.644000 6.063000 # H1 
339 85 2  0.556400 6.517000 8.418000 6.133000 # H2 
340 85 3 -1.112800 5.646000 8.398000 6.142000 # M1 
341 86 1  0.000000 25.221001 12.295000 12.071000 # O1 
342 86 2  0.556400 25.124001 11.343000 12.096000 # H1 
343 86 2  0.556400 25.131001 12.521000 11.145000 # H2 
344 86 3 -1.112800 25.195999 12.199000 11.952000 # M1 
345 87 1  0.000000 2.915000 29.569000 29.591000 # O1 
346 87 2  0.556400 2.460000 30.283001 29.143999 # H1 
347 87 2  0.556400 3.697000 29.416000 29.059999 # H2 
348 87 3 -1.112800 2.959000 29.643999 29.461000 # M1 
349 88 1  0.000000 -0.000000 2.413000 13.100000 # O1 
350 88 2  0.556400 0.926000 2.652000 13.071000 # H1 
351 88 2 0.5561  0.000000 1.472000 13.276000 # H2 
352 88 3 -1.112800 0.122000 2.320000 13.119000 # M1 
353 89 1  0.000000 1.524000 5.666000 30.090000 # O1 
354 89 2  0.556400 0.591000 5.880000 30.080000 # H1 
355 89 2  0.556400 1.553000 4.727000 30.273001 # H2 
356 89 3 -1.112800 1.404000 5.570000 30.113001 # M1 
357 90 1  0.000000 4.596000 2.182000 25.277000 # O1 
358 90 2  0.556400 4.421000 3.090000 25.028999 # H1 
359 90 2  0.556400 5.545000 2.144000 25.393000 # H2 
360 90 3 -1.112800 4.698000 2.297000 25.260000 # M1 
361 91 1  0.000000 20.131001 32.320000 33.307999 # O1 
362 91 2  0.556400 19.652000 32.653999 34.067001 # H1 
363 91 2  0.556400 21.025000 32.639999 33.428001 # H2 
364 91 3 -1.112800 20.186001 32.407001 33.424000 # M1 
365 92 1  0.000000 34.943001 11.703000 27.283001 # O1 
366 92 2  0.556400 35.485001 12.241000 27.861000 # H1 
367 92 2  0.556400 34.105000 11.630000 27.740999 # H2 
368 92 3 -1.112800 34.903000 11.764000 27.420000 # M1 
369 93 1  0.000000 31.733000 4.489000 22.865000 # O1 
370 93 2  0.556400 30.934000 4.703000 22.382999 # H1 
371 93 2  0.556400 31.457001 3.837000 23.509001 # H2 
372 93 3 -1.112800 31.591000 4.431000 22.886999 # M1 
373 94 1  0.000000 21.771000 2.798000 21.667999 # O1 
374 94 2  0.556400 22.298000 3.407000 21.150000 # H1 
375 94 2  0.556400 22.393999 2.396000 22.273001 # H2 
376 94 3 -1.112800 21.923000 2.826000 21.679001 # M1 
377 95 1  0.000000 5.244000 25.372999 2.696000 # O1 
378 95 2  0.556400 6.195000 25.278999 2.656000 # H1 
379 95 2  0.556400 5.104000 26.228001 3.102000 # H2 
380 95 3 -1.112800 5.351000 25.474001 2.744000 # M1 
381 96 1  0.000000 4.608000 6.232000 24.465000 # O1 
382 96 2  0.556400 3.831000 5.690000 24.327999 # H1 
383 96 2  0.556400 5.293000 5.611000 24.711000 # H2 
384 96 3 -1.112800 4.596000 6.078000 24.479000 # M1 
385 97 1  0.000000 34.125999 19.312000 15.598000 # O1 
386 97 2  0.556400 35.069000 19.476999 15.604000 # H1 
387 97 2  0.556400 34.049999 18.358000 15.592000 # H2 
388 97 3 -1.112800 34.241001 19.208000 15.598000 # M1 
389 98 1  0.000000 14.597000 32.286999 33.004002 # O1 
390 98 2  0.556400 14.780000 32.999001 32.390999 # H1 
391 98 2  0.556400 15.393000 32.215000 33.532001 # H2 
392 98 3 -1.112800 14.727000 32.372002 32.993000 # M1 
393 99 1  0.000000 24.098000 36.839001 20.027000 # O1 
394 99 2  0.556400 24.488001 37.153999 20.841999 # H1 
395 99 2  0.556400 23.509001 36.134998 20.299000 # H2 
396 99 3 -1.112800 24.072001 36.787998 20.171000 # M1 
397 100 1  0.000000 33.139999 27.754999 24.180000 # O1 
398 100 2  0.556400 33.758999 27.781000 23.451000 # H1 
399 100 2  0.556400 32.695000 26.912001 24.087000 # H2 
400 100 3 -1.112800 33.162998 27.646999 24.070999 # M1 
401 101 1  0.000000 6.361000 18.212000 17.855000 # O1 
402 101 2  0.556400 6.797000 19.063999 17.843000 # H1 
403 101 2  0.556400 7.077000 17.576000 17.837000 # H2 
404 101 3 -1.112800 6.513000 18.240999 17.851000 # M1 
405 102 1  0.000000 10.753000 4.067000 13.284000 # O1 
406 102 2  0.556400 11.685000 3.911000 13.126000 # H1 
407 102 2  0.556400 10.657000 5.018000 13.234000 # H2 
408 102 3 -1.112800 10.864000 4.172000 13.257000 # M1 
409 103 1  0.000000 21.903000 16.349001 19.400000 # O1 
410 103 2  0.556400 22.528000 17.058001 19.249001 # H1 
411 103 2  0.556400 22.448999 15.586000 19.590000 # H2 
412 103 3 -1.112800 22.058001 16.341999 19.405001 # M1 
413 104 1  0.000000 35.648998 18.774000 3.829000 # O1 
414 104 2  0.556400 36.355000 19.292000 4.217000 # H1 
415 104 2  0.556400 34.855000 19.274000 4.016000 # H2 
416 104 3 -1.112800 35.637001 18.909000 3.905000 # M1 
417 105 1  0.000000 14.416000 30.083000 7.021000 # O1 
418 105 2  0.556400 13.937000 30.264000 6.211000 # H1 
419 105 2  0.556400 14.646000 30.948000 7.361000 # H2 
420 105 3 -1.112800 14.383000 30.222000 6.959000 # M1 
421 106 1  0.000000 0.347000 18.308001 6.829000 # O1 
422 106 2  0.556400 -0.000000 19.194000 6.927000 # H1 
423 106 2  0.556400 1.298000 18.419001 6.849000 # H2 
424 106 3 -1.112800 0.427000 18.438999 6.844000 # M1 
425 107 1  0.000000 3.135000 17.316999 35.306999 # O1 
426 107 2  0.556400 3.612000 16.493000 35.409000 # H1 
427 107 2  0.556400 2.313000 17.066999 34.883999 # H2 
428 107 3 -1.112800 3.089000 17.174999 35.264999 # M1 
429 108 1  0.000000 0.585000 25.539000 19.968000 # O1 
430 108 2  0.556400 -0.002000 26.296000 19.961000 # H1 
431 108 2 0.5561  0.000000 24.782000 19.978001 # H2 
432 108 3 -1.112800 0.430000 25.539000 19.968000 # M1 
433 109 1  0.000000 26.590000 23.466000 4.128000 # O1 
434 109 2  0.556400 25.840000 23.487000 3.534000 # H1 
435 109 2  0.556400 26.767000 24.386000 4.323000 # H2 
436 109 3 -1.112800 26.514000 23.590000 4.075000 # M1 
437 110 1  0.000000 29.754999 31.601999 23.528000 # O1 
438 110 2  0.556400 30.500999 31.070000 23.808001 # H1 
439 110 2  0.556400 30.118000 32.479000 23.405001 # H2 
440 110 3 -1.112800 29.902000 31.646999 23.549000 # M1 
441 111 1  0.000000 25.062000 2.821000 5.708000 # O1 
442 111 2  0.556400 25.691000 3.537000 5.795000 # H1 
443 111 2  0.556400 25.596001 2.058000 5.488000 # H2 
444 111 3 -1.112800 25.216000 2.815000 5.691000 # M1 
445 112 1  0.000000 19.749001 32.266998 17.565001 # O1 
446 112 2  0.556400 19.025000 32.891998 17.532000 # H1 
447 112 2  0.556400 19.329000 31.409000 17.496000 # H2 
448 112 3 -1.112800 19.598000 32.236000 17.551001 # M1 
449 113 1  0.000000 28.021999 12.872000 14.646000 # O1 
450 113 2  0.556400 27.127001 13.210000 14.673000 # H1 
451 113 2  0.556400 28.575001 13.650000 14.721000 # H2 
452 113 3 -1.112800 27.976999 13.019000 14.660000 # M1 
453 114 1  0.000000 18.288000 14.634000 21.749001 # O1 
454 114 2  0.556400 19.129000 14.937000 21.406000 # H1 
455 114 2  0.556400 18.315001 14.854000 22.680000 # H2 
456 114 3 -1.112800 18.403000 14.703000 21.827000 # M1 
457 115 1  0.000000 7.268000 13.870000 1.818000 # O1 
458 115 2  0.556400 6.335000 14.085000 1.786000 # H1 
459 115 2  0.556400 7.711000 14.717000 1.770000 # H2 
460 115 3 -1.112800 7.203000 14.011000 1.807000 # M1 
461 116 1  0.000000 7.671000 3.461000 9.406000 # O1 
462 116 2  0.556400 8.084000 2.622000 9.200000 # H1 
463 116 2  0.556400 6.741000 3.253000 9.502000 # H2 
464 116 3 -1.112800 7.603000 3.323000 9.391000 # M1 
465 117 1  0.000000 33.259998 10.312000 24.041000 # O1 
466 117 2  0.556400 33.646000 9.467000 24.274000 # H1 
467 117 2  0.556400 33.609001 10.923000 24.690001 # H2 
468 117 3 -1.112800 33.356998 10.281000 24.157000 # M1 
469 118 1  0.000000 5.055000 25.445000 14.552000 # O1 
470 118 2  0.556400 5.336000 24.545000 14.387000 # H1 
471 118 2  0.556400 5.841000 25.886000 14.875000 # H2 
472 118 3 -1.112800 5.196000 25.384001 14.573000 # M1 
473 119 1  0.000000 16.612000 8.616000 27.420000 # O1 
474 119 2  0.556400 15.837000 8.609000 27.981001 # H1 
475 119 2  0.556400 16.289000 8.347000 26.559999 # H2 
476 119 3 -1.112800 16.466999 8.580000 27.379999 # M1 
477 120 1  0.000000 14.713000 10.231000 22.597000 # O1 
478 120 2  0.556400 15.420000 9.876000 23.136000 # H1 
479 120 2  0.556400 15.120000 10.400000 21.747000 # H2 
480 120 3 -1.112800 14.860000 10.206000 22.556000 # M1 
481 121 1  0.000000 3.160000 20.659000 25.204000 # O1 
482 121 2  0.556400 2.679000 21.226999 24.603001 # H1 
483 121 2  0.556400 2.500000 20.355000 25.827000 # H2 
484 121 3 -1.112800 3.009000 20.694000 25.207001 # M1 
485 122 1  0.000000 19.589001 36.268002 28.500999 # O1 
486 122 2  0.556400 18.804001 36.814999 28.527000 # H1 
487 122 2  0.556400 20.285999 36.861000 28.216999 # H2 
488 122 3 -1.112800 19.577999 36.418999 28.466999 # M1 
489 123 1  0.000000 22.900999 16.871000 2.429000 # O1 
490 123 2  0.556400 23.032000 16.481001 3.293000 # H1 
491 123 2  0.556400 23.785999 17.006001 2.090000 # H2 
492 123 3 -1.112800 23.035000 16.837000 2.498000 # M1 
493 124 1  0.000000 4.769000 8.070000 35.439999 # O1 
494 124 2  0.556400 5.533000 8.643000 35.504002 # H1 
495 124 2  0.556400 4.959000 7.349000 36.040001 # H2 
496 124 3 -1.112800 4.895000 8.051000 35.528000 # M1 
497 125 1  0.000000 2.742000 12.450000 24.334999 # O1 
498 125 2  0.556400 2.684000 13.159000 23.695000 # H1 
499 125 2  0.556400 3.184000 11.741000 23.867001 # H2 
500 125 3 -1.112800 2.793000 12.450000 24.188000 # M1 
501 126 1  0.000000 26.725000 29.157000 26.987000 # O1 
502 126 2  0.556400 26.115000 29.888000 27.084999 # H1 
503 126 2  0.556400 26.167000 28.379999 26.962999 # H2 
504 126 3 -1.112800 26.570999 29.150999 26.997000 # M1 
505 127 1  0.000000 8.606000 11.328000 20.503000 # O1 
506 127 2  0.556400 8.738000 11.030000 19.603001 # H1 
507 127 2  0.556400 9.225000 12.050000 20.610001 # H2 
508 127 3 -1.112800 8.705000 11.384000 20.398001 # M1 
509 128 1  0.000000 18.145000 29.416000 3.233000 # O1 
510 128 2  0.556400 17.579000 28.721001 3.568000 # H1 
511 128 2  0.556400 18.655001 28.997000 2.540000 # H2 
512 128 3 -1.112800 18.138000 29.268999 3.186000 # M1 
513 129 1  0.000000 14.430000 17.170000 24.145000 # O1 
514 129 2  0.556400 15.387000 17.149000 24.143000 # H1 
515 129 2  0.556400 14.170000 16.250000 24.177000 # H2 
516 129 3 -1.112800 14.522000 17.046000 24.149000 # M1 
517 130 1  0.000000 30.697001 29.150000 8.096000 # O1 
518 130 2  0.556400 31.309000 29.877001 8.209000 # H1 
519 130 2  0.556400 31.025999 28.676001 7.332000 # H2 
520 130 3 -1.112800 30.822001 29.183001 8.010000 # M1 
521 131 1  0.000000 12.253000 13.690000 30.047001 # O1 
522 131 2  0.556400 13.139000 13.947000 30.299999 # H1 
523 131 2  0.556400 12.153000 14.021000 29.153999 # H2 
524 131 3 -1.112800 12.357000 13.768000 29.962000 # M1 
525 132 1  0.000000 2.542000 35.811001 20.820999 # O1 
526 132 2  0.556400 2.880000 35.016998 20.405001 # H1 
527 132 2  0.556400 1.898000 35.493999 21.455000 # H2 
528 132 3 -1.112800 2.502000 35.664001 20.850000 # M1 
529 133 1  0.000000 27.865000 27.576000 28.195999 # O1 
530 133 2  0.556400 27.681999 26.671000 28.445000 # H1 
531 133 2  0.556400 28.820000 27.643999 28.222000 # H2 