LAMMPS data file for the TIP5P-2018 water model

 10000 atoms
 0 bonds
 0 angles
 0 dihedrals
 0 impropers

 3 atom types
 0 bond types
 0 angle types
 0 dihedral types
 0 improper types

0.000000 39.150683 xlo xhi
0.000000 39.150683 ylo yhi
0.000000 39.150683 zlo zhi

Masses

  1   15.999000  # O
  2    1.008000  # H
  3    1.e-16    # L

# Pair Coeffs
#
# 1  O1
# 2  H1 H2
# 3  L1 L2

# Bond Coeffs
#
# 1    500.000000   0.957200   # O-H
# 2    500.000000   0.700000   # O-L

# Angle Coeffs
#
# 1  50.000000  104.520000    H1-O1-H2
# 2  50.000000  109.470000    L1-O1-L2

 Atoms # full

1        1 1 -0.641114 25.967373 14.494350 37.625790 # O1 
2        1 2  0.394137 25.289783 15.170087 37.647717 # H1 
3        1 2  0.394137 26.739906 14.916874 38.001148 # H2 
4        1 3 -0.073580 25.777153 13.940743 38.009628 # L1 
5        1 3 -0.073580 26.092100 14.290358 36.967892 # L2 
6        2 1 -0.641114 37.427353 9.285356 22.962269 # O1 
7        2 2  0.394137 38.003017 9.556151 22.247070 # H1 
8        2 2  0.394137 38.021286 9.085286 23.685766 # H2 
9        2 3 -0.073580 36.989906 9.803061 23.137260 # L1 
10       2 3 -0.073580 37.057991 8.718864 22.781553 # L2 
11       3 1 -0.641114 3.624355 34.046898 9.375508 # O1 
12       3 2  0.394137 3.132796 33.234325 9.255796 # H1 
13       3 2  0.394137 2.956258 34.732300 9.385413 # H2 
14       3 3 -0.073580 3.976644 34.036083 9.980301 # L1 
15       3 3 -0.073580 4.072016 34.145432 8.846462 # L2 
16       4 1 -0.641114 5.678887 36.499699 9.178863 # O1 
17       4 2  0.394137 5.044446 36.101074 8.583199 # H1 
18       4 2  0.394137 6.254346 37.010654 8.609653 # H2 
19       4 3 -0.073580 5.356897 36.914539 9.641713 # L1 
20       4 3 -0.073580 6.041562 36.007366 9.519563 # L2 
21       5 1 -0.641114 31.851494 35.845337 17.765654 # O1 
22       5 2  0.394137 32.330311 36.574135 17.370907 # H1 
23       5 2  0.394137 31.266268 36.258495 18.400511 # H2 
24       5 3 -0.073580 31.484962 35.498486 17.280531 # L1 
25       5 3 -0.073580 32.291431 35.404453 18.085150 # L2 
26       6 1 -0.641114 10.329545 0.614908 27.334513 # O1 
27       6 2  0.394137 9.472140 0.212190 27.472013 # H1 
28       6 2  0.394137 10.798794 -0.004541 26.775658 # H2 
29       6 3 -0.073580 10.263514 1.234650 27.015827 # L1 
30       6 3 -0.073580 10.663333 0.700275 27.943855 # L2 
31       7 1 -0.641114 17.003838 0.810326 21.360170 # O1 
32       7 2  0.394137 17.757803 1.249602 21.753620 # H1 
33       7 2  0.394137 16.244623 1.273820 21.713722 # H2 
34       7 3 -0.073580 17.023081 0.863207 20.662437 # L1 
35       7 3 -0.073580 16.988213 0.134700 21.542612 # L2 
36       8 1 -0.641114 27.909664 31.447184 19.386827 # O1 
37       8 2  0.394137 28.618168 31.319225 18.756050 # H1 
38       8 2  0.394137 28.027834 32.343266 19.701958 # H2 
39       8 3 -0.073580 27.286301 31.374153 19.076853 # L1 
40       8 3 -0.073580 27.962776 30.990351 19.914541 # L2 
41       9 1 -0.641114 8.073919 22.386303 18.702957 # O1 
42       9 2  0.394137 8.459145 22.807819 17.934742 # H1 
43       9 2  0.394137 7.854991 23.110371 19.289495 # H2 
44       9 3 -0.073580 7.498818 22.028402 18.526419 # L1 
45       9 3 -0.073580 8.534305 21.953957 19.004822 # L2 
46      10 1 -0.641114 34.898006 27.295059 35.059475 # O1 
47      10 2  0.394137 34.561825 27.955557 34.453709 # H1 
48      10 2  0.394137 34.181644 27.149368 35.677399 # H2 
49      10 3 -0.073580 35.054913 26.704008 34.718826 # L1 
50      10 3 -0.073580 35.467163 27.530985 35.391735 # L2 
51      11 1 -0.641114 5.510900 2.133300 31.194061 # O1 
52      11 2  0.394137 6.441758 1.985873 31.361397 # H1 
53      11 2  0.394137 5.133980 1.254855 31.144085 # H2 
54      11 3 -0.073580 5.220375 2.497796 31.716305 # L1 
55      11 3 -0.073580 5.419310 2.476466 30.590862 # L2 
56      12 1 -0.641114 12.161199 17.675264 29.998701 # O1 
57      12 2  0.394137 12.233530 18.452948 29.445339 # H1 
58      12 2  0.394137 11.760629 17.992945 30.807932 # H2 
59      12 3 -0.073580 11.755611 17.192348 29.694906 # L1 
60      12 3 -0.073580 12.793212 17.402580 30.125990 # L2 
61      13 1 -0.641114 15.391197 26.143963 19.204128 # O1 
62      13 2  0.394137 15.055124 25.403896 19.709684 # H1 
63      13 2  0.394137 16.280066 26.275963 19.533857 # H2 
64      13 3 -0.073580 15.400777 25.992720 18.520731 # L1 
65      13 3 -0.073580 15.000289 26.714663 19.311333 # L2 
66      14 1 -0.641114 29.052988 11.143391 13.488896 # O1 
67      14 2  0.394137 29.151686 10.219604 13.258447 # H1 
68      14 2  0.394137 28.157990 11.213595 13.820982 # H2 
69      14 3 -0.073580 29.514894 11.326015 13.982141 # L1 
70      14 3 -0.073580 29.140383 11.549583 12.925541 # L2 
71      15 1 -0.641114 22.146982 10.212000 10.558323 # O1 
72      15 2  0.394137 21.581343 10.964072 10.383193 # H1 
73      15 2  0.394137 21.902943 9.928158 11.439294 # H2 
74      15 3 -0.073580 22.031343 9.701862 10.093150 # L1 
75      15 3 -0.073580 22.821152 10.399146 10.536597 # L2 
76      16 1 -0.641114 19.290756 22.984615 3.239304 # O1 
77      16 2  0.394137 19.653793 23.294983 2.409781 # H1 
78      16 2  0.394137 19.422306 22.036715 3.219144 # H2 
79      16 3 -0.073580 19.630882 23.270109 3.780422 # L1 
80      16 3 -0.073580 18.609459 23.138906 3.284312 # L2 
81      17 1 -0.641114 30.641403 5.998297 36.634373 # O1 
82      17 2  0.394137 29.708990 5.786648 36.589169 # H1 
83      17 2  0.394137 31.080616 5.147823 36.638554 # H2 
84      17 3 -0.073580 30.836855 6.374915 36.077637 # L1 
85      17 3 -0.073580 30.786167 6.354347 37.219414 # L2 
86      18 1 -0.641114 31.377619 20.240902 32.113499 # O1 
87      18 2  0.394137 31.796677 20.827724 31.484007 # H1 
88      18 2  0.394137 31.921225 19.453077 32.105881 # H2 
89      18 3 -0.073580 31.368032 20.528675 32.751537 # L1 
90      18 3 -0.073580 30.723141 20.091782 31.914946 # L2 
91      19 1 -0.641114 14.686597 28.616840 3.128622 # O1 
92      19 2  0.394137 14.780008 28.043306 2.367987 # H1 
93      19 2  0.394137 15.430070 29.216829 3.069528 # H2 
94      19 3 -0.073580 14.082032 28.968561 3.100471 # L1 
95      19 3 -0.073580 14.713865 28.246868 3.722235 # L2 
96      20 1 -0.641114 31.052273 9.364253 8.205722 # O1 
97      20 2  0.394137 31.426695 8.488425 8.300410 # H1 
98      20 2  0.394137 31.733122 9.869580 7.761514 # H2 
99      20 3 -0.073580 30.468437 9.343325 7.820107 # L1 
100     20 3 -0.073580 30.908165 9.640757 8.832442 # L2 
101     21 1 -0.641114 0.941749 30.460606 29.884586 # O1 
102     21 2  0.394137 -0.001637 30.615236 29.836184 # H1 
103     21 2  0.394137 1.024421 29.513069 29.992147 # H2 
104     21 3 -0.073580 1.257453 30.671280 29.296413 # L1 
105     21 3 -0.073580 1.219781 30.796894 30.431952 # L2 
106     22 1 -0.641114 1.749522 18.788612 0.539627 # O1 
107     22 2  0.394137 2.677736 18.822771 0.308362 # H1 
108     22 2  0.394137 1.538700 17.854963 0.548862 # H2 
109     22 3 -0.073580 1.641018 19.072962 1.170002 # L1 
110     22 3 -0.073580 1.363156 19.124748 0.062411 # L2 
111     23 1 -0.641114 3.638662 36.378643 18.066360 # O1 
112     23 2  0.394137 4.238912 37.117573 18.165928 # H1 
113     23 2  0.394137 4.203479 35.606129 18.087294 # H2 
114     23 3 -0.073580 3.177289 36.362083 18.592537 # L1 
115     23 3 -0.073580 3.296352 36.418365 17.457062 # L2 
116     24 1 -0.641114 31.880650 1.683794 30.764008 # O1 
117     24 2  0.394137 31.624439 2.335855 30.111776 # H1 
118     24 2  0.394137 31.307577 1.854070 31.511555 # H2 
119     24 3 -0.073580 31.781010 1.035893 30.518454 # L1 
120     24 3 -0.073580 32.552338 1.764431 30.943810 # L2 
121     25 1 -0.641114 11.344561 14.518539 4.612615 # O1 
122     25 2  0.394137 11.816407 15.325671 4.407360 # H1 
123     25 2  0.394137 11.993287 13.965353 5.047782 # H2 
124     25 3 -0.073580 10.804901 14.649064 5.038913 # L1 
125     25 3 -0.073580 11.111231 14.212837 4.027718 # L2 
126     26 1 -0.641114 15.850104 13.010610 7.988463 # O1 
127     26 2  0.394137 15.632186 13.491171 7.189837 # H1 
128     26 2  0.394137 15.174605 13.268594 8.615661 # H2 
129     26 3 -0.073580 15.831267 12.320183 7.874640 # L1 
130     26 3 -0.073580 16.485233 13.191575 8.220541 # L2 
131     27 1 -0.641114 14.079390 15.908365 3.965649 # O1 
132     27 2  0.394137 15.025283 16.033239 3.888675 # H1 
133     27 2  0.394137 13.976232 14.980525 4.177077 # H2 
134     27 3 -0.073580 13.817733 16.309067 4.476505 # L1 
135     27 3 -0.073580 13.759716 16.061562 3.362044 # L2 
136     28 1 -0.641114 26.494375 8.474115 18.574579 # O1 
137     28 2  0.394137 27.092796 7.741311 18.429251 # H1 
138     28 2  0.394137 27.061895 9.244143 18.609346 # H2 
139     28 3 -0.073580 26.036539 8.527830 18.047794 # L1 
140     28 3 -0.073580 26.147924 8.394724 19.177628 # L2 
141     29 1 -0.641114 4.806555 23.923176 31.454042 # O1 
142     29 2  0.394137 5.723695 24.154444 31.601011 # H1 
143     29 2  0.394137 4.768095 22.980333 31.614666 # H2 
144     29 3 -0.073580 4.390263 24.267174 31.899426 # L1 
145     29 3 -0.073580 4.616720 24.070036 30.796474 # L2 
146     30 1 -0.641114 1.930593 2.971263 36.129337 # O1 
147     30 2  0.394137 2.347643 3.832831 36.128330 # H1 
148     30 2  0.394137 2.660074 2.351521 36.126541 # H2 
149     30 3 -0.073580 1.537099 2.887577 36.702190 # L1 
150     30 3 -0.073580 1.533189 2.888134 35.559109 # L2 
151     31 1 -0.641114 10.599053 12.218287 0.419190 # O1 
152     31 2  0.394137 9.709352 12.531616 0.581939 # H1 
153     31 2  0.394137 11.042048 12.958497 0.004370 # H2 
154     31 3 -0.073580 10.914507 12.046273 1.019939 # L1 
155     31 3 -0.073580 10.591745 11.663553 -0.007677 # L2 
156     32 1 -0.641114 21.578512 13.550220 11.297214 # O1 
157     32 2  0.394137 21.654724 13.884821 12.190783 # H1 
158     32 2  0.394137 20.951412 12.830073 11.363286 # H2 
159     32 3 -0.073580 21.339613 14.047524 10.866384 # L1 
160     32 3 -0.073580 22.197420 13.318871 11.066069 # L2 
161     33 1 -0.641114 29.604971 35.664165 29.096178 # O1 
162     33 2  0.394137 30.491684 35.310329 29.027132 # H1 
163     33 2  0.394137 29.052807 35.014584 28.660992 # H2 
164     33 3 -0.073580 29.419256 35.737030 29.767149 # L1 
165     33 3 -0.073580 29.559906 36.283482 28.773037 # L2 
166     34 1 -0.641114 6.194100 33.136726 28.847105 # O1 
167     34 2  0.394137 6.748647 32.799168 28.143711 # H1 
168     34 2  0.394137 6.718431 33.824764 29.256872 # H2 
169     34 3 -0.073580 5.599261 33.399925 28.588467 # L1 
170     34 3 -0.073580 6.044710 32.631763 29.308292 # L2 
171     35 1 -0.641114 8.233460 15.059794 21.042517 # O1 
172     35 2  0.394137 7.461300 15.622193 20.981623 # H1 
173     35 2  0.394137 8.974562 15.663795 20.995798 # H2 
174     35 3 -0.073580 8.237403 14.709820 21.648735 # L1 
175     35 3 -0.073580 8.250942 14.605168 20.510530 # L2 
176     36 1 -0.641114 35.091221 5.942327 14.044335 # O1 
177     36 2  0.394137 35.865196 6.493240 14.161329 # H1 
178     36 2  0.394137 35.221027 5.523701 13.193375 # H2 
179     36 3 -0.073580 35.050026 5.462511 14.552350 # L1 
180     36 3 -0.073580 34.508968 6.330889 14.042622 # L2 
181     37 1 -0.641114 34.646202 9.028533 17.797003 # O1 
182     37 2  0.394137 35.484528 8.641243 17.545120 # H1 
183     37 2  0.394137 34.047783 8.284261 17.861691 # H2 
184     37 3 -0.073580 34.700401 9.356635 18.412966 # L1 
185     37 3 -0.073580 34.426510 9.481002 17.310167 # L2 
186     38 1 -0.641114 28.373325 26.743164 24.096958 # O1 
187     38 2  0.394137 28.315134 27.626717 24.460524 # H1 
188     38 2  0.394137 28.912260 26.841642 23.312050 # H2 
189     38 3 -0.073580 28.677465 26.307627 24.552814 # L1 
190     38 3 -0.073580 27.737558 26.501280 23.931751 # L2 
191     39 1 -0.641114 23.528860 7.701325 35.700359 # O1 
192     39 2  0.394137 24.444420 7.526586 35.918182 # H1 
193     39 2  0.394137 23.528133 8.599451 35.369301 # H2 
194     39 3 -0.073580 23.302113 7.256611 35.209633 # L1 
195     39 3 -0.073580 23.124542 7.647034 36.269199 # L2 
196     40 1 -0.641114 20.470896 21.104988 10.219571 # O1 
197     40 2  0.394137 19.733692 21.598997 10.578339 # H1 
198     40 2  0.394137 20.170811 20.196058 10.214220 # H2 
199     40 3 -0.073580 20.620239 21.320013 9.570371 # L1 
200     40 3 -0.073580 21.037090 21.176180 10.624976 # L2 
201     41 1 -0.641114 0.269752 9.428722 29.378342 # O1 
202     41 2  0.394137 1.224095 9.486239 29.424730 # H1 
203     41 2  0.394137 -0.004960 10.275897 29.027546 # H2 
204     41 3 -0.073580 0.073667 8.909172 28.952173 # L1 
205     41 3 -0.073580 -0.002984 9.324199 30.014494 # L2 
206     42 1 -0.641114 14.219012 33.017273 25.566259 # O1 
207     42 2  0.394137 14.920286 32.520020 25.145325 # H1 
208     42 2  0.394137 14.563301 33.907879 25.633492 # H2 
209     42 3 -0.073580 13.638363 33.005371 25.175486 # L1 
210     42 3 -0.073580 14.078416 32.757835 26.201023 # L2 
211     43 1 -0.641114 21.579569 1.134842 25.069944 # O1 
212     43 2  0.394137 22.137054 0.708132 25.720606 # H1 
213     43 2  0.394137 22.044775 1.941165 24.847103 # H2 
214     43 3 -0.073580 21.503630 0.728811 24.504816 # L1 
215     43 3 -0.073580 20.950041 1.279011 25.339958 # L2 
216     44 1 -0.641114 19.729782 28.743971 7.173556 # O1 
217     44 2  0.394137 20.529537 28.798836 7.696637 # H1 
218     44 2  0.394137 19.487661 27.818325 7.201673 # H2 
219     44 3 -0.073580 19.224457 29.140409 7.451909 # L1 
220     44 3 -0.073580 19.850445 28.948208 6.514976 # L2 
221     45 1 -0.641114 16.887388 16.686872 23.279119 # O1 
222     45 2  0.394137 17.760992 17.051872 23.138344 # H1 
223     45 2  0.394137 16.294237 17.426605 23.147985 # H2 
224     45 3 -0.073580 16.754395 16.178213 22.816975 # L1 
225     45 3 -0.073580 16.826918 16.433468 23.928835 # L2 
226     46 1 -0.641114 31.428652 14.152953 23.499050 # O1 
227     46 2  0.394137 32.303806 14.042130 23.870607 # H1 
228     46 2  0.394137 31.529982 14.848873 22.849699 # H2 
229     46 3 -0.073580 31.212101 13.560698 23.195177 # L1 
230     46 3 -0.073580 30.971605 14.341600 23.994553 # L2 
231     47 1 -0.641114 11.441387 1.390990 7.850727 # O1 
232     47 2  0.394137 11.664241 0.814090 8.581311 # H1 
233     47 2  0.394137 11.010418 2.141222 8.260176 # H2 
234     47 3 -0.073580 12.018566 1.592892 7.509994 # L1 
235     47 3 -0.073580 11.007768 1.069519 7.405046 # L2 
236     48 1 -0.641114 24.502394 25.331465 4.860626 # O1 
237     48 2  0.394137 25.288921 25.186527 5.386553 # H1 
238     48 2  0.394137 24.216026 24.453148 4.610058 # H2 
239     48 3 -0.073580 24.008825 25.654449 5.237547 # L1 
240     48 3 -0.073580 24.650946 25.714338 4.293757 # L2 
241     49 1 -0.641114 31.859644 27.348429 21.731104 # O1 
242     49 2  0.394137 31.045992 26.981543 22.076933 # H1 
243     49 2  0.394137 31.588585 27.852421 20.963802 # H2 
244     49 3 -0.073580 32.164680 27.763838 22.204798 # L1 
245     49 3 -0.073580 32.302856 26.838440 21.548147 # L2 
246     50 1 -0.641114 0.454411 6.387942 10.639882 # O1 
247     50 2  0.394137 1.227615 6.074114 10.170947 # H1 
248     50 2  0.394137 0.168961 5.637634 11.161215 # H2 
249     50 3 -0.073580 0.618329 6.928462 11.053365 # L1 
250     50 3 -0.073580 -0.045966 6.581478 10.190254 # L2 
251     51 1 -0.641114 18.617474 12.481155 1.534699 # O1 
252     51 2  0.394137 19.039236 11.623404 1.585798 # H1 
253     51 2  0.394137 17.932764 12.452100 2.202950 # H2 
254     51 3 -0.073580 19.076565 12.991181 1.672937 # L1 
255     51 3 -0.073580 18.339771 12.582862 0.900242 # L2 
256     52 1 -0.641114 8.237715 6.450964 15.345976 # O1 
257     52 2  0.394137 7.575375 6.665169 14.688972 # H1 
258     52 2  0.394137 8.628071 7.293889 15.576911 # H2 
259     52 3 -0.073580 7.942788 6.153050 15.906569 # L1 
260     52 3 -0.073580 8.720260 6.019654 15.079291 # L2 
261     53 1 -0.641114 17.241236 20.502544 34.791740 # O1 
262     53 2  0.394137 16.363916 20.351736 35.143597 # H1 
263     53 2  0.394137 17.615683 21.175034 35.360756 # H2 
264     53 3 -0.073580 17.622446 19.916035 34.817913 # L1 
265     53 3 -0.073580 17.206911 20.729189 34.130337 # L2 
266     54 1 -0.641114 26.254520 14.947263 17.297785 # O1 
267     54 2  0.394137 26.105045 15.787575 16.864468 # H1 
268     54 2  0.394137 26.505373 14.353579 16.590082 # H2 
269     54 3 -0.073580 26.768532 15.000408 17.769981 # L1 
270     54 3 -0.073580 25.670580 14.723991 17.612684 # L2 
271     55 1 -0.641114 19.203533 23.605389 36.402367 # O1 
272     55 2  0.394137 18.818258 22.744850 36.567497 # H1 
273     55 2  0.394137 18.462900 24.210728 36.437813 # H2 
274     55 3 -0.073580 19.675936 23.763416 36.894165 # L1 
275     55 3 -0.073580 19.507805 23.623402 35.772213 # L2 
276     56 1 -0.641114 37.345444 31.927921 32.079231 # O1 
277     56 2  0.394137 37.846924 31.112656 32.088642 # H1 
278     56 2  0.394137 38.008869 32.617493 32.055000 # H2 
279     56 3 -0.073580 36.935108 31.959419 31.512983 # L1 
280     56 3 -0.073580 36.952202 31.983128 32.655697 # L2 
281     57 1 -0.641114 11.650482 31.410524 25.466471 # O1 
282     57 2  0.394137 11.553123 30.611774 24.948057 # H1 
283     57 2  0.394137 12.460035 31.279118 25.960014 # H2 
284     57 3 -0.073580 11.702764 31.970816 25.050127 # L1 
285     57 3 -0.073580 11.106917 31.491873 25.899965 # L2 
286     58 1 -0.641114 14.523325 24.223383 7.061874 # O1 
287     58 2  0.394137 13.936096 24.786785 7.565828 # H1 
288     58 2  0.394137 15.199772 23.961903 7.686597 # H2 
289     58 3 -0.073580 14.180837 23.663183 6.819222 # L1 
290     58 3 -0.073580 14.804268 24.575308 6.525946 # L2 
291     59 1 -0.641114 11.635152 24.339693 7.379648 # O1 
292     59 2  0.394137 10.711835 24.087370 7.372605 # H1 
293     59 2  0.394137 12.105352 23.524612 7.555113 # H2 
294     59 3 -0.073580 11.823664 24.605585 6.760162 # L1 
295     59 3 -0.073580 11.759208 24.810110 7.882953 # L2 
296     60 1 -0.641114 16.351294 23.652758 18.377762 # O1 
297     60 2  0.394137 16.560608 23.418528 19.281948 # H1 
298     60 2  0.394137 16.553375 22.865051 17.872869 # H2 
299     60 3 -0.073580 15.674247 23.819389 18.315784 # L1 
300     60 3 -0.073580 16.744551 24.191071 18.164297 # L2 
301     61 1 -0.641114 36.430771 36.963299 2.255775 # O1 
302     61 2  0.394137 36.283543 37.904991 2.343924 # H1 
303     61 2  0.394137 37.317741 36.891037 1.903219 # H2 
304     61 3 -0.073580 36.385460 36.646492 2.878334 # L1 
305     61 3 -0.073580 35.965801 36.680363 1.815609 # L2 
306     62 1 -0.641114 3.547909 28.635132 2.993210 # O1 
307     62 2  0.394137 4.501888 28.612736 3.068393 # H1 
308     62 2  0.394137 3.326910 29.566103 3.019325 # H2 
309     62 3 -0.073580 3.340577 28.348516 2.389169 # L1 
310     62 3 -0.073580 3.249619 28.294996 3.527373 # L2 
311     63 1 -0.641114 8.251213 7.367591 3.999174 # O1 
312     63 2  0.394137 8.314411 8.261190 3.661951 # H1 
313     63 2  0.394137 9.094692 7.211105 4.423776 # H2 
314     63 3 -0.073580 7.728005 7.313934 4.461097 # L1 
315     63 3 -0.073580 8.148982 6.912777 3.476974 # L2 
316     64 1 -0.641114 4.869378 29.827652 0.570609 # O1 
317     64 2  0.394137 4.680027 30.643944 1.033258 # H1 
318     64 2  0.394137 5.794704 29.894453 0.334937 # H2 
319     64 3 -0.073580 4.759413 29.275963 0.987195 # L1 
320     64 3 -0.073580 4.471656 29.770170 -0.002551 # L2 
321     65 1 -0.641114 34.758266 5.379410 10.359388 # O1 
322     65 2  0.394137 34.626469 4.550975 9.898350 # H1 
323     65 2  0.394137 35.591007 5.711092 10.023593 # H2 
324     65 3 -0.073580 34.238708 5.826656 10.217852 # L1 
325     65 3 -0.073580 34.794296 5.274832 11.050593 # L2 
326     66 1 -0.641114 14.609610 21.959192 16.496307 # O1 
327     66 2  0.394137 14.553428 22.380131 15.638469 # H1 
328     66 2  0.394137 15.461437 21.522596 16.494066 # H2 
329     66 3 -0.073580 14.577132 22.435541 17.008202 # L1 
330     66 3 -0.073580 14.093239 21.493645 16.577707 # L2 
331     67 1 -0.641114 28.320330 8.802380 8.979100 # O1 
332     67 2  0.394137 27.365648 8.871037 8.989092 # H1 
333     67 2  0.394137 28.626141 9.709407 8.975301 # H2 
334     67 3 -0.073580 28.550140 8.466227 9.548474 # L1 
335     67 3 -0.073580 28.538122 8.465492 8.405452 # L2 
336     68 1 -0.641114 22.527424 33.148697 4.816366 # O1 
337     68 2  0.394137 21.738655 32.608067 4.858778 # H1 
338     68 2  0.394137 22.203491 34.048809 4.849467 # H2 
339     68 3 -0.073580 22.947332 33.016735 5.360665 # L1 
340     68 3 -0.073580 22.875071 33.032677 4.219977 # L2 
341     69 1 -0.641114 25.578508 27.282339 16.319921 # O1 
342     69 2  0.394137 26.294819 26.770931 15.943635 # H1 
343     69 2  0.394137 25.872675 28.190937 16.255514 # H2 
344     69 3 -0.073580 24.988455 27.186943 15.955593 # L1 
345     69 3 -0.073580 25.471519 27.103746 16.988245 # L2 
346     70 1 -0.641114 11.708689 25.038898 30.172894 # O1 
347     70 2  0.394137 11.532983 24.099771 30.231165 # H1 
348     70 2  0.394137 10.910742 25.453176 30.501352 # H2 
349     70 3 -0.073580 12.258835 25.212700 30.569292 # L1 
350     70 3 -0.073580 11.830184 25.227152 29.509720 # L2 
351     71 1 -0.641114 13.461327 3.810490 12.140502 # O1 
352     71 2  0.394137 13.056323 4.271122 12.875364 # H1 
353     71 2  0.394137 12.957632 3.000740 12.057877 # H2 
354     71 3 -0.073580 13.415829 4.190982 11.554708 # L1 
355     71 3 -0.073580 14.133661 3.670826 12.276373 # L2 
356     72 1 -0.641114 25.381159 10.665859 20.570566 # O1 
357     72 2  0.394137 25.242538 11.472413 21.067039 # H1 
358     72 2  0.394137 25.694113 10.035480 21.219343 # H2 
359     72 3 -0.073580 24.782173 10.447024 20.281902 # L1 
360     72 3 -0.073580 25.859886 10.763166 20.069218 # L2 
361     73 1 -0.641114 2.106639 21.553148 18.226082 # O1 
362     73 2  0.394137 1.314298 21.948046 17.862103 # H1 
363     73 2  0.394137 2.179427 20.708269 17.782106 # H2 
364     73 3 -0.073580 2.665954 21.952103 18.091906 # L1 
365     73 3 -0.073580 2.043685 21.464600 18.917599 # L2 
366     74 1 -0.641114 33.395584 20.929890 27.409946 # O1 
367     74 2  0.394137 32.767887 21.649216 27.479195 # H1 
368     74 2  0.394137 32.946148 20.180702 27.801044 # H2 
369     74 3 -0.073580 33.552383 20.802053 26.739819 # L1 
370     74 3 -0.073580 33.981808 21.078321 27.762518 # L2 
371     75 1 -0.641114 12.338018 27.773516 5.199663 # O1 
372     75 2  0.394137 13.204712 28.161497 5.320258 # H1 
373     75 2  0.394137 12.483548 26.830973 5.281296 # H2 
374     75 3 -0.073580 11.895241 27.999069 5.692687 # L1 
375     75 3 -0.073580 12.082547 27.930508 4.567138 # L2 
376     76 1 -0.641114 6.256751 34.958084 26.029535 # O1 
377     76 2  0.394137 7.203540 35.084442 26.091614 # H1 
378     76 2  0.394137 5.904978 35.838989 25.901108 # H2 
379     76 3 -0.073580 6.097219 34.546387 25.486345 # L1 
380     76 3 -0.073580 6.005830 34.674950 26.618498 # L2 
381     77 1 -0.641114 32.600742 15.640922 0.787074 # O1 
382     77 2  0.394137 32.044209 15.800166 0.024745 # H1 
383     77 2  0.394137 32.589729 16.467779 1.269170 # H2 
384     77 3 -0.073580 32.340847 15.122511 1.179124 # L1 
385     77 3 -0.073580 33.252136 15.479106 0.588333 # L2 
386     78 1 -0.641114 25.800535 7.593761 32.238022 # O1 
387     78 2  0.394137 25.098591 7.432094 32.868393 # H1 
388     78 2  0.394137 25.929087 8.542035 32.259953 # H2 
389     78 3 -0.073580 26.385777 7.260317 32.428570 # L1 
390     78 3 -0.073580 25.610832 7.384589 31.597506 # L2 
391     79 1 -0.641114 8.092882 19.355978 9.596466 # O1 
392     79 2  0.394137 7.805234 18.443111 9.609278 # H1 
393     79 2  0.394137 9.048785 19.306351 9.592147 # H2 
394     79 3 -0.073580 7.859445 19.680859 9.022045 # L1 
395     79 3 -0.073580 7.865346 19.695042 10.165028 # L2 
396     80 1 -0.641114 15.615968 4.353866 7.249509 # O1 
397     80 2  0.394137 14.910012 3.723891 7.104636 # H1 
398     80 2  0.394137 15.275067 5.179589 6.905708 # H2 
399     80 3 -0.073580 15.760391 4.410923 7.932068 # L1 
400     80 3 -0.073580 16.193686 4.161779 6.904046 # L2 
401     81 1 -0.641114 5.027483 15.588442 24.450611 # O1 
402     81 2  0.394137 5.166604 16.533178 24.384666 # H1 
403     81 2  0.394137 4.222981 15.429303 23.956968 # H2 
404     81 3 -0.073580 5.564254 15.239044 24.168127 # L1 
405     81 3 -0.073580 4.949701 15.395922 25.119106 # L2 
406     82 1 -0.641114 34.197479 20.970058 13.836301 # O1 
407     82 2  0.394137 33.950863 20.045242 13.825033 # H1 
408     82 2  0.394137 33.906277 21.306429 12.988783 # H2 
409     82 3 -0.073580 33.875469 21.305586 14.359495 # L1 
410     82 3 -0.073580 34.890484 21.040449 13.905513 # L2 
411     83 1 -0.641114 0.486767 29.154818 33.526077 # O1 
412     83 2  0.394137 1.392306 28.929512 33.739307 # H1 
413     83 2  0.394137 -0.001497 28.343287 33.664814 # H2 
414     83 3 -0.073580 0.251481 29.660475 33.949104 # L1 
415     83 3 -0.073580 0.434209 29.364388 32.860256 # L2 
416     84 1 -0.641114 30.695417 4.030130 17.974922 # O1 
417     84 2  0.394137 29.943453 4.576226 18.204180 # H1 
418     84 2  0.394137 30.327093 3.155908 17.847237 # H2 
419     84 3 -0.073580 30.997599 4.259586 17.386675 # L1 
420     84 3 -0.073580 31.166031 4.027020 18.493107 # L2 
421     85 1 -0.641114 5.745910 8.635615 5.534349 # O1 
422     85 2  0.394137 5.696297 8.111677 4.734812 # H1 
423     85 2  0.394137 5.582687 9.532922 5.243780 # H2 
424     85 3 -0.073580 5.258922 8.432034 5.994127 # L1 
425     85 3 -0.073580 6.379715 8.581642 5.826542 # L2 
426     86 1 -0.641114 25.396036 11.724551 11.998639 # O1 
427     86 2  0.394137 24.865887 12.521473 11.989270 # H1 
428     86 2  0.394137 25.989202 11.839627 12.741029 # H2 
429     86 3 -0.073580 24.992374 11.159963 12.089728 # L1 
430     86 3 -0.073580 25.756227 11.660028 11.401899 # L2 
431     87 1 -0.641114 3.689578 30.132059 29.486486 # O1 
432     87 2  0.394137 3.100913 29.487856 29.093161 # H1 
433     87 2  0.394137 4.553734 29.722149 29.448563 # H2 
434     87 3 -0.073580 3.682709 30.729038 29.121019 # L1 
435     87 3 -0.073580 3.506409 30.262224 30.149439 # L2 
436     88 1 -0.641114 0.574651 2.966279 13.191665 # O1 
437     88 2  0.394137 0.998199 2.165245 12.883148 # H1 
438     88 2  0.394137 0.428265 3.481256 12.398191 # H2 
439     88 3 -0.073580 -0.032889 2.819281 13.506760 # L1 
440     88 3 -0.073580 0.991002 3.310603 13.636741 # L2 
441     89 1 -0.641114 1.285072 7.233177 31.616131 # O1 
442     89 2  0.394137 1.684175 8.008783 32.010319 # H1 
443     89 2  0.394137 0.686005 6.904570 32.286480 # H2 
444     89 3 -0.073580 0.935544 7.403567 31.034067 # L1 
445     89 3 -0.073580 1.772540 6.754441 31.463860 # L2 
446     90 1 -0.641114 4.391423 1.540855 26.259602 # O1 
447     90 2  0.394137 4.462242 0.597379 26.114452 # H1 
448     90 2  0.394137 5.297692 1.846798 26.295750 # H2 
449     90 3 -0.073580 4.047778 1.847159 25.732264 # L1 
450     90 3 -0.073580 4.061057 1.674331 26.862131 # L2 
451     91 1 -0.641114 20.449179 34.179077 34.320457 # O1 
452     91 2  0.394137 20.998533 34.960770 34.262177 # H1 
453     91 2  0.394137 20.867262 33.641541 34.993134 # H2 
454     91 3 -0.073580 19.796858 34.348686 34.509418 # L1 
455     91 3 -0.073580 20.434149 33.841042 33.707672 # L2 
456     92 1 -0.641114 34.781658 12.742471 27.472437 # O1 
457     92 2  0.394137 34.361931 13.580078 27.668592 # H1 
458     92 2  0.394137 35.480221 12.666065 28.122360 # H2 
459     92 3 -0.073580 34.325035 12.215849 27.536991 # L1 
460     92 3 -0.073580 35.045929 12.744004 26.824240 # L2 
461     93 1 -0.641114 32.505260 4.394302 23.734798 # O1 
462     93 2  0.394137 32.044037 5.152121 23.375340 # H1 
463     93 2  0.394137 32.710289 3.854008 22.971727 # H2 
464     93 3 -0.073580 33.091400 4.593554 24.061510 # L1 
465     93 3 -0.073580 32.095856 4.044997 24.182426 # L2 
466     94 1 -0.641114 22.259205 1.545447 21.986557 # O1 
467     94 2  0.394137 23.078379 1.861331 21.605242 # H1 
468     94 2  0.394137 21.575157 2.009412 21.503811 # H2 
469     94 3 -0.073580 22.196861 0.853569 21.900434 # L1 
470     94 3 -0.073580 22.228338 1.699372 22.668726 # L2 
471     95 1 -0.641114 5.074020 26.137175 3.095003 # O1 
472     95 2  0.394137 4.570757 26.525030 2.379094 # H1 
473     95 2  0.394137 5.969053 26.445768 2.953879 # H2 
474     95 3 -0.073580 4.831806 26.355623 3.714368 # L1 
475     95 3 -0.073580 5.045984 25.438305 3.066834 # L2 
476     96 1 -0.641114 16.652248 37.748932 0.571836 # O1 
477     96 2  0.394137 16.640694 36.791847 0.562639 # H1 
478     96 2  0.394137 15.728619 38.000000 0.582021 # H2 
479     96 3 -0.073580 16.979593 37.986893 1.142992 # L1 
480     96 3 -0.073580 16.970009 37.997993 -0.000000 # L2 
481     97 1 -0.641114 31.267759 0.377862 10.348228 # O1 
482     97 2  0.394137 31.110657 1.309038 10.191826 # H1 
483     97 2  0.394137 32.199825 0.257867 10.166328 # H2 
484     97 3 -0.073580 31.121708 0.210429 11.012031 # L1 
485     97 3 -0.073580 30.879229 -0.014271 9.917791 # L2 
486     98 1 -0.641114 4.703562 6.120775 25.328533 # O1 
487     98 2  0.394137 5.468571 5.546824 25.288883 # H1 
488     98 2  0.394137 3.954829 5.526303 25.281281 # H2 
489     98 3 -0.073580 4.695660 6.481350 25.928471 # L1 
490     98 3 -0.073580 4.700236 6.566198 24.788546 # L2 
491     99 1 -0.641114 35.387955 19.713938 16.119137 # O1 
492     99 2  0.394137 36.298019 20.000326 16.041731 # H1 
493     99 2  0.394137 35.289673 19.473112 17.040318 # H2 
494     99 3 -0.073580 34.949978 20.233524 15.951200 # L1 
495     99 3 -0.073580 35.265949 19.162916 15.705023 # L2 
496    100 1 -0.641114 15.509507 33.609364 33.715607 # O1 